/*--------------------------------*- C++ -*----------------------------------*\
| =========                 |                                                 |
| \\      /  F ield         | OpenFOAM: The Open Source CFD Toolbox           |
|  \\    /   O peration     | Version:  v2006                                 |
|   \\  /    A nd           | Website:  www.openfoam.com                      |
|    \\/     M anipulation  |                                                 |
\*---------------------------------------------------------------------------*/
FoamFile
{
    version     2.0;
    format      ascii;
    class       volScalarField;
    location    "200";
    object      epsilon;
}
// * * * * * * * * * * * * * * * * * * * * * * * * * * * * * * * * * * * * * //

dimensions      [0 2 -3 0 0 0 0];


internalField   nonuniform List<scalar> 
12225
(
1085.71
2467.78
3645.44
4414.75
4812.15
4980.52
4975.34
4926.52
4840.75
4729.17
4620.77
4517.27
4425.61
4339.64
4269.15
4198.67
4151.03
4085.88
81.2301
262.52
438.553
584.501
691.163
762.811
805.024
829.612
846.94
856.78
866.696
873.585
883.063
890.842
900.526
910.309
917.384
934.263
20.5775
51.1735
83.4741
112.529
136.934
156.18
170.173
179.871
186.395
190.767
193.502
195.6
196.873
198.352
199.392
200.689
202.743
205.978
14.7579
21.8682
30.0216
38.4983
46.2197
53.034
58.6261
63.2589
66.7582
69.643
71.6138
73.3297
74.3186
75.3356
75.7347
76.408
76.6243
77.3452
14.361
16.3337
18.4571
21.4861
24.4397
27.2608
29.7372
31.9823
33.8191
35.4786
36.745
37.9267
38.7442
39.5743
40.0541
40.6532
40.8437
41.4578
14.6446
14.9541
15.4277
16.4559
17.6093
18.8286
19.9699
21.0767
22.0337
22.9481
23.6895
24.4155
24.956
25.527
25.8915
26.3524
26.5461
27.001
14.7184
14.6387
14.6738
14.8757
15.2176
15.6833
16.1628
16.6724
17.1383
17.6108
18.0104
18.4206
18.7384
19.0877
19.3208
19.6242
19.7625
20.0847
14.7545
14.5907
14.4691
14.4209
14.4418
14.5153
14.6476
14.8246
15.0023
15.2023
15.3793
15.576
15.7326
15.9149
16.0398
16.2084
16.2892
16.4757
14.7641
14.5919
14.4345
14.3029
14.2031
14.1371
14.0973
14.0987
14.1107
14.1415
14.1783
14.2346
14.2793
14.3427
14.3852
14.4501
14.481
14.5622
14.7656
14.5942
14.4321
14.2828
14.1466
14.0296
13.9256
13.8437
13.7744
13.7224
13.6772
13.6482
13.6204
13.6063
13.5892
13.5839
13.5722
13.5818
14.7657
14.5945
14.4323
14.2806
14.137
14.0051
13.8816
13.7705
13.6679
13.5777
13.4939
13.4219
13.3537
13.2972
13.2406
13.1973
13.1473
13.1179
14.7657
14.5944
14.4323
14.2801
14.1357
14.0007
13.8728
13.754
13.6417
13.5386
13.441
13.3523
13.2677
13.1923
13.1185
13.055
12.9896
12.9369
14.7657
14.5941
14.4321
14.2797
14.1353
13.9995
13.8707
13.7497
13.6347
13.5271
13.4248
13.3294
13.2384
13.1542
13.0732
12.9991
12.9267
12.8616
14.7657
14.594
14.4319
14.2792
14.1349
13.9987
13.8698
13.7481
13.6327
13.5237
13.4201
13.3224
13.2294
13.1418
13.0582
12.9796
12.9043
12.8337
14.7657
14.5938
14.4317
14.2789
14.1345
13.9981
13.8691
13.7471
13.6316
13.5222
13.4183
13.32
13.2265
13.1379
13.0536
12.9737
12.8975
12.8253
14.7657
14.5938
14.4316
14.2786
14.1341
13.9976
13.8685
13.7463
13.6307
13.5211
13.4171
13.3185
13.2249
13.1361
13.0516
12.9713
12.8949
12.8222
14.7657
14.5937
14.4315
14.2784
14.1338
13.9972
13.868
13.7457
13.6299
13.5202
13.4162
13.3175
13.2237
13.1347
13.0501
12.9697
12.8931
12.8203
14.7657
14.5937
14.4314
14.2783
14.1336
13.9969
13.8677
13.7453
13.6294
13.5196
13.4155
13.3167
13.2228
13.1337
13.049
12.9685
12.8919
12.819
14.7657
14.5937
14.4314
14.2782
14.1336
13.9969
13.8675
13.7452
13.6292
13.5194
13.4152
13.3163
13.2224
13.1333
13.0485
12.968
12.8913
12.8184
14.7657
14.5937
14.4315
14.2783
14.1337
13.997
13.8677
13.7453
13.6294
13.5196
13.4154
13.3166
13.2227
13.1336
13.0489
12.9683
12.8917
12.8188
14.7657
14.5937
14.4316
14.2785
14.1339
13.9973
13.8681
13.7457
13.63
13.5202
13.4163
13.3176
13.2241
13.1352
13.051
12.9708
12.8948
12.8224
14.7657
14.5938
14.4317
14.2786
14.1343
13.9978
13.869
13.7473
13.6325
13.524
13.4219
13.3252
13.2344
13.1483
13.0676
12.9907
12.9192
12.8504
14.7657
14.5937
14.4319
14.2789
14.1361
14.0021
13.8782
13.7629
13.6573
13.5595
13.4707
13.3883
13.3141
13.2446
13.1829
13.1237
13.0729
13.0213
14.7644
14.5922
14.4335
14.2871
14.1628
14.0551
13.9689
13.8978
13.8459
13.8048
13.7783
13.758
13.7482
13.7416
13.7423
13.7434
13.7529
13.7517
14.7478
14.5944
14.4764
14.4102
14.4234
14.4613
14.5554
14.6706
14.817
14.9613
15.1238
15.2712
15.432
15.5684
15.7197
15.8374
15.9783
16.0722
14.6504
14.7821
14.9369
15.3416
15.9227
16.5509
17.2339
17.8781
18.5378
19.1218
19.7129
20.2098
20.7203
21.1251
21.5592
21.8761
22.2459
22.4813
14.572
16.1273
17.9726
20.4197
22.9236
25.2655
27.5469
29.5528
31.4909
33.103
34.6861
35.9145
37.1765
38.0667
39.0621
39.6739
40.4626
40.8543
16.5442
25.8795
36.721
46.5547
55.8661
64.2738
72.1021
78.742
84.8032
89.592
94.0149
97.1772
100.316
102.193
104.455
105.419
107.138
107.495
45.7966
105.211
164.44
217.234
267.845
313.452
353.663
386.108
413.225
433.658
450.598
462.706
472.895
479.776
486.818
490.309
496.156
497.493
632.343
1081.16
1534.74
1880.99
2183.47
2431.76
2631.52
2773.01
2876.12
2932.17
2969.03
2970.11
2963.09
2946.14
2918.21
2884.95
2849.13
2811.79
0.44253
0.434859
0.728291
1.0208
1.28076
1.49894
1.68966
1.87046
2.04037
2.20673
2.37808
2.56395
2.77798
3.04358
3.37254
3.75432
4.18083
4.65274
5.17409
5.75175
6.39199
7.10219
7.88784
8.75567
9.71042
10.7595
11.9093
13.1566
14.4996
15.941
17.4805
19.1214
20.8639
22.7119
24.6653
26.729
28.9039
31.1978
33.6194
36.1873
38.9222
41.8621
44.9334
48.1605
51.5348
55.0698
58.7642
62.6276
66.6608
70.8729
75.2643
79.8446
84.6139
89.5818
94.7483
100.123
105.705
111.504
117.519
123.758
130.22
136.915
143.837
150.997
158.39
166.024
173.892
182.005
190.352
198.943
207.766
216.83
226.123
235.652
245.401
255.377
265.564
275.966
286.567
297.369
308.352
319.518
330.846
342.335
353.961
365.721
377.59
389.561
401.607
413.715
425.857
438.004
450.126
462.191
474.166
486.02
497.739
509.344
520.935
532.338
543.598
554.667
565.536
576.176
586.562
596.669
606.473
615.948
625.069
633.811
642.148
650.059
657.519
664.506
670.998
676.977
682.424
687.323
691.658
695.417
698.592
701.177
703.173
704.577
705.392
705.588
705.034
703.9
702.366
700.235
697.46
694.155
690.314
685.966
681.135
675.848
670.135
664.028
657.562
650.779
643.738
636.477
629.037
621.455
613.771
606.024
598.255
590.5
582.798
575.184
567.698
560.37
553.233
546.315
539.644
533.238
527.123
521.312
515.819
510.649
505.814
501.305
497.121
493.252
489.684
486.383
483.353
480.894
481.534
483.148
485.038
487.216
489.572
492.014
494.343
496.415
498.154
498.937
497.345
475.161
1.73257
0.962032
0.854184
0.88711
0.972035
1.08535
1.22017
1.37453
1.54565
1.73351
1.93989
2.16784
2.42131
2.70466
3.02024
3.36792
3.7475
4.15995
4.60687
5.09026
5.61184
6.17323
6.77553
7.4198
8.10669
8.83692
9.61053
10.4269
11.2862
12.1909
13.1412
14.1381
15.1809
16.2699
17.4066
18.5935
19.8322
21.1261
22.4781
23.8921
25.3702
26.9134
28.5169
30.185
31.9181
33.7187
35.5881
37.5284
39.5409
41.6278
43.7903
46.0303
48.3488
50.748
53.2286
55.7925
58.4402
61.1734
63.9926
66.8991
69.8931
72.9758
76.147
79.4076
82.7569
86.1958
89.723
93.3391
97.0424
100.833
104.709
108.67
112.713
116.838
121.041
125.321
129.675
134.101
138.594
143.153
147.772
152.448
157.175
161.951
166.768
171.622
176.505
181.412
186.334
191.263
196.191
201.107
206.001
210.867
215.697
220.492
225.261
230.033
234.867
239.664
244.398
249.061
253.645
258.139
262.535
266.823
270.994
275.037
278.943
282.702
286.305
289.742
293.004
296.083
298.97
301.656
304.134
306.398
308.441
310.257
311.843
313.194
314.309
315.185
315.815
316.184
316.273
316.146
315.813
315.239
314.407
313.348
312.066
310.571
308.873
306.981
304.908
302.665
300.269
297.736
295.084
292.329
289.487
286.573
283.604
280.596
277.566
274.529
271.502
268.5
265.539
262.631
259.794
257.037
254.375
251.818
249.376
247.056
244.868
242.815
240.904
239.133
237.507
236.024
234.683
233.48
232.428
231.63
231.578
231.787
232.121
232.588
233.13
233.709
234.269
234.75
235.15
235.583
235.595
234.473
3.35333
1.59491
1.28425
1.23575
1.27699
1.36646
1.49079
1.64547
1.82831
2.03823
2.27468
2.5375
2.8268
3.14276
3.48536
3.85432
4.24953
4.67134
5.12046
5.59783
6.10441
6.64114
7.20889
7.8086
8.44123
9.10813
9.81112
10.5478
11.3153
12.1096
12.9378
13.8037
14.7084
15.6534
16.6401
17.6699
18.7443
19.8647
21.0323
22.2483
23.5135
24.8285
26.194
27.6119
29.0837
30.6099
32.1916
33.8302
35.5266
37.2822
39.0979
40.9748
42.9139
44.9162
46.9824
49.1135
51.31
53.5728
55.9024
58.2992
60.7637
63.2962
65.8969
68.566
71.3032
74.1086
76.9818
79.9225
82.9299
86.0035
89.1424
92.3455
95.6115
98.9392
102.327
105.773
109.275
112.832
116.44
120.097
123.801
127.548
131.335
135.159
139.015
142.899
146.808
150.736
154.679
158.632
162.589
166.546
170.498
174.442
178.377
182.302
186.221
190.138
194.05
197.925
201.754
205.53
209.245
212.891
216.462
219.949
223.345
226.642
229.833
232.909
235.864
238.688
241.375
243.918
246.309
248.541
250.61
252.507
254.229
255.771
257.128
258.297
259.275
260.06
260.65
261.025
261.169
261.168
260.969
260.579
259.993
259.223
258.273
257.152
255.866
254.424
252.835
251.108
249.256
247.291
245.226
243.074
240.847
238.558
236.219
233.844
231.446
229.037
226.629
224.236
221.869
219.54
217.259
215.038
212.885
210.809
208.818
206.92
205.12
203.422
201.83
200.347
198.973
197.71
196.557
195.513
194.582
193.805
193.325
193.003
192.778
192.632
192.523
192.429
192.322
192.185
192.03
191.998
192.065
192.642
4.88302
2.21415
1.75001
1.6485
1.66561
1.74709
1.87316
2.0361
2.23238
2.46001
2.71742
3.00311
3.3156
3.65351
4.01566
4.40119
4.80965
5.24111
5.696
6.17509
6.67924
7.20941
7.76652
8.3514
8.9647
9.60676
10.2772
10.9783
11.713
12.4854
13.2947
14.1412
15.0255
15.949
16.9127
17.918
18.9665
20.0592
21.1962
22.3781
23.6055
24.8788
26.1981
27.5625
28.977
30.4426
31.9603
33.5313
35.1566
36.8372
38.5742
40.3686
42.2213
44.1333
46.1054
48.1383
50.2327
52.3892
54.6086
56.8912
59.2376
61.6483
64.1234
66.6633
69.2679
71.9374
74.6716
77.4702
80.3329
83.2592
86.2484
89.2997
92.4121
95.5845
98.8155
102.104
105.447
108.844
112.293
115.791
119.335
122.924
126.553
130.221
133.923
137.656
141.416
145.2
149.003
152.822
156.652
160.489
164.329
168.171
172.01
175.845
179.674
183.494
187.293
191.058
194.781
198.454
202.071
205.623
209.105
212.508
215.824
219.047
222.169
225.182
228.078
230.851
233.492
235.994
238.351
240.556
242.602
244.484
246.196
247.734
249.093
250.269
251.259
252.062
252.674
253.084
253.273
253.305
253.146
252.801
252.27
251.559
250.675
249.623
248.41
247.043
245.532
243.886
242.115
240.231
238.247
236.172
234.021
231.804
229.534
227.224
224.884
222.529
220.168
217.814
215.479
213.172
210.904
208.685
206.524
204.428
202.405
200.462
198.604
196.836
195.16
193.579
192.095
190.705
189.41
188.205
187.094
186.092
185.248
184.517
183.862
183.263
182.679
182.102
181.52
180.935
180.371
179.958
179.774
180.193
6.21752
2.82036
2.22053
2.0739
2.07074
2.14434
2.26959
2.43583
2.63799
2.87313
3.139
3.43356
3.75481
4.10097
4.47054
4.86248
5.27629
5.71194
6.16986
6.65081
7.15571
7.68564
8.24166
8.82485
9.43624
10.0769
10.748
11.4512
12.1881
12.9604
13.7688
14.614
15.4969
16.4184
17.3796
18.3811
19.4237
20.5082
21.6359
22.808
24.0254
25.2893
26.6011
27.963
29.3751
30.8383
32.3537
33.9224
35.5456
37.2243
38.9598
40.7532
42.6055
44.5181
46.4922
48.5282
50.627
52.7894
55.0162
57.3082
59.666
62.0904
64.5818
67.1408
69.7676
72.4625
75.2257
78.0571
80.9567
83.9242
86.9592
90.061
93.2289
96.4621
99.7592
103.119
106.54
110.021
113.559
117.152
120.798
124.495
128.239
132.028
135.857
139.724
143.626
147.557
151.514
155.494
159.492
163.503
167.525
171.551
175.578
179.602
183.616
187.613
191.585
195.522
199.418
203.265
207.054
210.779
214.432
218.004
221.488
224.877
228.161
231.333
234.385
237.309
240.097
242.742
245.236
247.572
249.744
251.744
253.568
255.21
256.665
257.929
258.999
259.871
260.544
261.013
261.251
261.309
261.171
260.837
260.309
259.594
258.695
257.619
256.372
254.963
253.399
251.691
249.849
247.884
245.809
243.634
241.373
239.037
236.638
234.19
231.705
229.195
226.671
224.146
221.631
219.137
216.673
214.25
211.876
209.56
207.309
205.129
203.026
201.005
199.067
197.216
195.452
193.773
192.179
190.666
189.233
187.886
186.642
185.483
184.388
183.344
182.321
181.311
180.311
179.329
178.397
177.631
177.087
177.045
7.37282
3.38959
2.67358
2.48429
2.46223
2.526
2.64684
2.81145
3.01332
3.24867
3.51484
3.80959
4.13091
4.47705
4.8466
5.2386
5.65257
6.08852
6.54687
7.02836
7.53392
8.06466
8.6217
9.20625
9.8195
10.4627
11.1371
11.8441
12.585
13.3609
14.1728
15.0218
15.9087
16.8347
17.8005
18.8074
19.8561
20.9479
22.0839
23.2653
24.4933
25.7692
27.0944
28.4703
29.8978
31.3783
32.9129
34.5029
36.1498
37.8548
39.6192
41.4444
43.3317
45.2822
47.2969
49.3774
51.5251
53.7412
56.0269
58.3832
60.8113
63.312
65.8864
68.5351
71.259
74.0585
76.9341
79.8862
82.9149
86.0202
89.202
92.4598
95.7931
99.2011
102.683
106.237
109.862
113.557
117.319
121.146
125.035
128.984
132.991
137.05
141.16
145.316
149.514
153.75
158.02
162.319
166.642
170.984
175.34
179.704
184.071
188.433
192.783
197.115
201.419
205.687
209.912
214.085
218.199
222.243
226.211
230.094
233.882
237.567
241.141
244.595
247.92
251.107
254.148
257.034
259.759
262.313
264.69
266.882
268.884
270.688
272.29
273.686
274.871
275.841
276.595
277.131
277.422
277.505
277.376
277.034
276.483
275.726
274.769
273.618
272.28
270.763
269.076
267.228
265.23
263.095
260.834
258.459
255.983
253.42
250.781
248.081
245.332
242.547
239.738
236.919
234.099
231.292
228.507
225.754
223.044
220.383
217.78
215.241
212.773
210.379
208.062
205.826
203.67
201.594
199.598
197.677
195.83
194.058
192.366
190.745
189.184
187.669
186.186
184.729
183.299
181.91
180.596
179.454
178.514
177.915
8.96687
4.02134
3.12596
2.87469
2.82599
2.87474
2.98683
3.14557
3.34274
3.57368
3.83534
4.12541
4.442
4.78354
5.14883
5.53706
5.94787
6.38127
6.83768
7.31777
7.82245
8.35275
8.90982
9.49484
10.109
10.7536
11.4299
12.139
12.8823
13.6609
14.4758
15.3283
16.2194
17.1501
18.1218
19.1354
20.1923
21.2936
22.4407
23.635
24.8779
26.1707
27.515
28.9122
30.3639
31.8714
33.4362
35.0601
36.7446
38.4913
40.3019
42.178
44.1212
46.1333
48.2157
50.3703
52.5988
54.9027
57.2837
59.7433
62.2829
64.904
67.6078
70.3956
73.2684
76.2271
79.2727
82.4057
85.6266
88.9357
92.3331
95.8186
99.3918
103.052
106.799
110.63
114.545
118.541
122.617
126.771
130.999
135.298
139.665
144.097
148.589
153.138
157.738
162.384
167.072
171.797
176.552
181.331
186.127
190.935
195.746
200.553
205.348
210.122
214.866
219.572
224.23
228.832
233.369
237.831
242.208
246.492
250.672
254.739
258.683
262.495
266.165
269.683
273.041
276.23
279.24
282.063
284.691
287.116
289.331
291.33
293.106
294.654
295.971
297.051
297.893
298.496
298.833
298.935
298.803
298.435
297.835
297.008
295.96
294.695
293.222
291.549
289.686
287.642
285.429
283.059
280.544
277.898
275.135
272.267
269.309
266.274
263.177
260.031
256.849
253.645
250.43
247.218
244.019
240.843
237.7
234.6
231.55
228.557
225.628
222.768
219.98
217.267
214.63
212.071
209.588
207.18
204.844
202.579
200.387
198.263
196.2
194.19
192.227
190.306
188.432
186.622
184.91
183.374
182.018
180.892
11.0132
4.71461
3.57159
3.23657
3.152
3.18017
3.2796
3.42929
3.6189
3.84276
4.09734
4.38024
4.68965
5.02419
5.38286
5.76501
6.17036
6.59899
7.05125
7.52779
8.02945
8.55719
9.1121
9.69533
10.3081
10.9515
11.627
12.3357
13.0788
13.8577
14.6735
15.5275
16.4209
17.3551
18.3312
19.3508
20.4152
21.5258
22.6843
23.8921
25.151
26.4626
27.8287
29.251
30.7313
32.2714
33.8732
35.5387
37.2697
39.0684
40.9368
42.877
44.8911
46.9811
49.1492
51.3977
53.7285
56.1439
58.646
61.2366
63.9179
66.6917
69.5597
72.5236
75.585
78.7452
82.0055
85.3669
88.8301
92.3957
96.0642
99.8354
103.709
107.685
111.762
115.939
120.214
124.586
129.051
133.608
138.254
142.984
147.795
152.683
157.644
162.671
167.76
172.904
178.099
183.337
188.611
193.914
199.238
204.575
209.917
215.254
220.577
225.876
231.142
236.365
241.534
246.641
251.673
256.621
261.475
266.223
270.855
275.36
279.727
283.947
288.008
291.9
295.614
299.138
302.464
305.582
308.484
311.161
313.605
315.809
317.767
319.473
320.922
322.109
323.032
323.69
324.06
324.166
324.01
323.593
322.917
321.989
320.815
319.4
317.752
315.881
313.796
311.507
309.027
306.369
303.546
300.571
297.459
294.225
290.883
287.448
283.934
280.358
276.732
273.07
269.387
265.694
262.003
258.327
254.674
251.055
247.479
243.953
240.485
237.079
233.741
230.475
227.283
224.167
221.127
218.163
215.273
212.457
209.715
207.045
204.445
201.912
199.442
197.035
194.7
192.453
190.325
188.379
186.595
184.975
13.0157
5.37185
3.97756
3.5547
3.43092
3.43594
3.5205
3.65925
3.83973
4.05514
4.30145
4.57606
4.87718
5.20355
5.55431
5.92894
6.32724
6.74932
7.19554
7.66649
8.16296
8.68589
9.23629
9.81524
10.4239
11.0636
11.7355
12.441
13.1814
13.9581
14.7724
15.6258
16.5196
17.4553
18.4346
19.4589
20.5298
21.6491
22.8185
24.04
25.3155
26.6472
28.0372
29.4874
31.0001
32.5776
34.2221
35.9359
37.7216
39.5817
41.5185
43.5349
45.6333
47.8165
50.0871
52.4479
54.9015
57.4507
60.0981
62.8463
65.6979
68.6552
71.7205
74.8961
78.184
81.5861
85.1039
88.7388
92.492
96.3645
100.357
104.469
108.7
113.052
117.521
122.107
126.809
131.624
136.549
141.581
146.717
151.953
157.284
162.704
168.209
173.792
179.447
185.167
190.945
196.773
202.642
208.545
214.47
220.41
226.353
232.29
238.21
244.101
249.953
255.754
261.493
267.159
272.74
278.224
283.599
288.854
293.976
298.954
303.776
308.431
312.907
317.192
321.277
325.15
328.801
332.22
335.397
338.325
340.994
343.396
345.525
347.375
348.94
350.216
351.2
351.889
352.265
352.35
352.141
351.642
350.857
349.793
348.455
346.849
344.986
342.873
340.522
337.943
335.149
332.154
328.972
325.617
322.105
318.45
314.668
310.776
306.789
302.723
298.592
294.411
290.196
285.959
281.713
277.47
273.241
269.037
264.868
260.742
256.667
252.65
248.697
244.813
241.001
237.266
233.609
230.03
226.532
223.114
219.777
216.524
213.353
210.266
207.264
204.351
201.535
198.833
196.272
193.903
191.685
189.597
14.8704
5.96275
4.33024
3.82257
3.65819
3.64073
3.70926
3.83616
4.00675
4.21315
4.45074
4.71668
5.00912
5.32683
5.66904
6.03531
6.42551
6.83978
7.27845
7.74212
8.2316
8.74788
9.29205
9.86467
10.467
11.1006
11.7667
12.4668
13.2024
13.975
14.7861
15.6374
16.5303
17.4668
18.4485
19.4772
20.5548
21.6832
22.8643
24.1
25.3937
26.7479
28.1649
29.6473
31.1977
32.8188
34.5133
36.2843
38.1346
40.0672
42.0854
44.1923
46.3912
48.6854
51.0781
53.5728
56.1728
58.8815
61.7021
64.6379
67.692
70.8675
74.1673
77.5941
81.1505
84.8387
88.6609
92.6188
96.7137
100.947
105.319
109.831
114.481
119.27
124.197
129.259
134.455
139.782
145.237
150.817
156.516
162.329
168.252
174.279
180.402
186.614
192.908
199.275
205.706
212.193
218.725
225.292
231.883
238.486
245.091
251.684
258.254
264.789
271.274
277.699
284.049
290.311
296.474
302.523
308.446
314.229
319.859
325.323
330.609
335.704
340.596
345.272
349.721
353.933
357.895
361.598
365.032
368.187
371.056
373.629
375.9
377.862
379.51
380.839
381.847
382.529
382.873
382.896
382.594
381.971
381.034
379.79
378.244
376.404
374.279
371.88
369.216
366.301
363.147
359.768
356.18
352.397
348.436
344.312
340.042
335.643
331.131
326.523
321.836
317.084
312.283
307.448
302.592
297.728
292.869
288.025
283.207
278.426
273.689
269.006
264.383
259.827
255.343
250.937
246.612
242.372
238.22
234.157
230.188
226.316
222.544
218.878
215.321
211.88
208.565
205.394
202.386
199.582
196.93
194.398
16.5222
6.4746
4.62483
4.03845
3.83482
3.79557
3.84842
3.96335
4.1239
4.32118
4.55004
4.80734
5.09112
5.40013
5.7336
6.09118
6.47282
6.87873
7.30886
7.76397
8.24505
8.75327
9.29007
9.85579
10.4517
11.079
11.7393
12.4341
13.1649
13.9335
14.7415
15.5908
16.4831
17.4204
18.4049
19.4386
20.5238
21.6627
22.8576
24.1104
25.4266
26.8085
28.2589
29.781
31.3779
33.0529
34.8093
36.6507
38.5805
40.6025
42.7206
44.9385
47.2603
49.69
52.2317
54.8893
57.6671
60.569
63.5992
66.7614
70.0596
73.4973
77.0782
80.8055
84.6821
88.7109
92.8942
97.2342
101.732
106.39
111.208
116.186
121.325
126.623
132.079
137.69
143.455
149.369
155.429
161.63
167.967
174.434
181.023
187.728
194.541
201.452
208.453
215.533
222.681
229.888
237.141
244.428
251.736
259.053
266.363
273.655
280.913
288.124
295.273
302.345
309.327
316.203
322.958
329.58
336.052
342.361
348.492
354.431
360.165
365.681
370.964
376.003
380.786
385.3
389.536
393.481
397.127
400.464
403.484
406.177
408.538
410.56
412.238
413.567
414.543
415.163
415.424
415.331
414.881
414.079
412.936
411.459
409.653
407.527
405.091
402.355
399.331
396.032
392.47
388.662
384.621
380.365
375.91
371.272
366.47
361.519
356.438
351.245
345.956
340.589
335.158
329.681
324.171
318.642
313.107
307.579
302.069
296.589
291.147
285.754
280.418
275.148
269.951
264.834
259.803
254.863
250.02
245.28
240.647
236.129
231.732
227.463
223.332
219.346
215.518
211.863
208.397
205.154
202.071
199.115
17.9367
6.90176
4.8612
4.20453
3.96488
3.90499
3.94282
4.0461
4.19681
4.38519
4.60558
4.85457
5.13009
5.43087
5.75578
6.10465
6.47773
6.87568
7.29818
7.74589
8.21959
8.72017
9.24845
9.80526
10.3925
11.0117
11.6647
12.3531
13.0786
13.8434
14.6493
15.4985
16.3932
17.3356
18.328
19.3732
20.4743
21.633
22.8523
24.1323
25.4806
26.9006
28.3962
29.9713
31.6304
33.377
35.2151
37.1487
39.1821
41.3199
43.5667
45.9272
48.406
51.0081
53.7382
56.6014
59.6024
62.746
66.0371
69.4802
73.0798
76.8402
80.7654
84.8591
89.1248
93.5654
98.1836
102.982
107.961
113.123
118.467
123.995
129.705
135.595
141.664
147.909
154.326
160.911
167.658
174.562
181.616
188.812
196.142
203.598
211.168
218.844
226.613
234.464
242.384
250.36
258.379
266.426
274.487
282.546
290.589
298.599
306.561
314.458
322.274
329.993
337.6
345.077
352.41
359.581
366.576
373.379
379.974
386.347
392.483
398.368
403.989
409.333
414.388
419.141
423.582
427.701
431.487
434.932
438.028
440.767
443.142
445.148
446.779
448.032
448.904
449.392
449.493
449.217
448.546
447.499
446.087
444.315
442.19
439.72
436.916
433.79
430.353
426.618
422.6
418.315
413.778
409.005
404.014
398.821
393.446
387.905
382.218
376.402
370.475
364.456
358.361
352.207
346.008
339.78
333.537
327.292
321.056
314.844
308.665
302.531
296.452
290.437
284.497
278.639
272.874
267.208
261.649
256.207
250.888
245.704
240.663
235.777
231.057
226.514
222.162
218.015
214.086
210.402
206.893
203.537
19.0962
7.24316
5.04176
4.32479
4.05338
3.97457
3.99852
4.09086
4.23233
4.41249
4.62493
4.86615
5.13414
5.42791
5.74602
6.08809
6.45397
6.84345
7.25688
7.69549
8.1603
8.65246
9.1733
9.72416
10.3065
10.9218
11.5721
12.2591
12.985
13.7522
14.563
15.4204
16.3261
17.2826
18.2929
19.3598
20.486
21.673
22.9263
24.2508
25.6511
27.1317
28.697
30.3517
32.1009
33.9499
35.9032
37.9656
40.1425
42.4393
44.8614
47.4145
50.1042
52.9362
55.9162
59.0499
62.3429
65.8009
69.4291
73.233
77.2173
81.3869
85.7461
90.2988
95.0486
99.9984
105.151
110.507
116.07
121.838
127.813
133.993
140.376
146.961
153.743
160.719
167.883
175.23
182.753
190.445
198.296
206.298
214.44
222.712
231.101
239.595
248.181
256.844
265.571
274.345
283.152
291.975
300.798
309.603
318.372
327.09
335.737
344.296
352.749
361.078
369.266
377.296
385.15
392.811
400.263
407.489
414.473
421.2
427.654
433.822
439.69
445.244
450.474
455.367
459.913
464.102
467.925
471.375
474.443
477.124
479.411
481.299
482.784
483.865
484.538
484.802
484.66
484.103
483.129
481.761
480.005
477.866
475.352
472.473
469.239
465.663
461.758
457.536
453.012
448.203
443.125
437.794
432.229
426.445
420.462
414.299
407.974
401.505
394.913
388.215
381.43
374.573
367.662
360.712
353.738
346.753
339.771
332.806
325.87
318.976
312.134
305.356
298.655
292.04
285.524
279.116
272.827
266.669
260.652
254.79
249.096
243.583
238.268
233.163
228.283
223.642
219.249
215.129
211.207
207.474
19.993
7.49982
5.16986
4.40379
4.10577
4.01053
4.02246
4.10499
4.23819
4.41141
4.61784
4.85342
5.11555
5.40245
5.71325
6.04806
6.40705
6.79072
7.1994
7.63385
8.09516
8.58462
9.10375
9.65424
10.2382
10.8568
11.5122
12.2067
12.9429
13.7234
14.5508
15.4275
16.3548
17.3372
18.3787
19.4832
20.6551
21.8986
23.2183
24.6196
26.1075
27.6874
29.3647
31.1453
33.0354
35.0405
37.1666
39.42
41.8071
44.3345
47.0088
49.8367
52.8246
55.9791
59.3065
62.8133
66.5058
70.39
74.4719
78.7568
83.25
87.9561
92.8794
98.0235
103.391
108.986
114.808
120.859
127.139
133.647
140.383
147.342
154.524
161.922
169.532
177.349
185.364
193.57
201.959
210.52
219.243
228.117
237.128
246.264
255.51
264.853
274.276
283.764
293.299
302.864
312.443
322.016
331.565
341.072
350.518
359.883
369.148
378.294
387.302
396.152
404.827
413.308
421.577
429.617
437.409
444.937
452.186
459.138
465.779
472.096
478.074
483.702
488.968
493.861
498.373
502.493
506.215
509.532
512.437
514.926
516.994
518.637
519.853
520.642
521.002
520.932
520.435
519.486
518.12
516.341
514.155
511.569
508.591
505.232
501.503
497.416
492.984
488.222
483.144
477.767
472.107
466.181
460.007
453.602
446.983
440.172
433.185
426.044
418.767
411.372
403.88
396.307
388.67
380.986
373.27
365.536
357.799
350.073
342.372
334.71
327.099
319.553
312.084
304.708
297.436
290.282
283.26
276.383
269.667
263.127
256.779
250.642
244.733
239.069
233.665
228.536
223.688
219.142
214.824
210.744
20.62
7.67021
5.24773
4.4457
4.12748
4.01925
4.02202
4.09777
4.22524
4.39271
4.59335
4.82369
5.08145
5.36528
5.67422
6.00807
6.36716
6.75152
7.16183
7.59915
8.06482
8.56037
9.08753
9.64812
10.2439
10.8759
11.5476
12.262
13.0223
13.8316
14.6935
15.6119
16.5905
17.6335
18.7453
19.9311
21.196
22.5456
23.9857
25.5223
27.1617
28.9103
30.775
32.7627
34.8807
37.1357
39.5351
42.0867
44.7988
47.6794
50.7366
53.9775
57.4092
61.0387
64.8728
68.9181
73.1811
77.6677
82.3834
87.3335
92.5222
97.9535
103.63
109.555
115.73
122.154
128.829
135.752
142.923
150.338
157.993
165.884
174.005
182.349
190.908
199.675
208.639
217.79
227.117
236.608
246.249
256.026
265.926
275.932
286.029
296.199
306.425
316.69
326.975
337.26
347.528
357.758
367.931
378.026
388.024
397.904
407.647
417.232
426.64
435.852
444.847
453.608
462.116
470.353
478.303
485.949
493.275
500.264
506.903
513.179
519.079
524.592
529.707
534.415
538.709
542.581
546.025
549.036
551.611
553.744
555.435
556.679
557.477
557.836
557.745
557.216
556.216
554.781
552.916
550.627
547.918
544.799
541.279
537.366
533.074
528.416
523.403
518.051
512.374
506.389
500.113
493.562
486.752
479.702
472.429
464.953
457.292
449.467
441.496
433.4
425.196
416.904
408.54
400.122
391.665
383.185
374.695
366.213
357.752
349.327
340.953
332.645
324.417
316.286
308.267
300.375
292.628
285.043
277.637
270.431
263.442
256.692
250.202
243.992
238.08
232.479
227.193
222.245
217.555
213.165
21.07
7.78467
5.29009
4.46012
4.1271
4.01048
4.00672
4.07659
4.20025
4.36647
4.56792
4.80034
5.06136
5.3496
5.66433
6.0053
6.37239
6.7657
7.18682
7.63726
8.11877
8.63335
9.18326
9.77107
10.3997
11.0721
11.7915
12.5617
13.3867
14.271
15.2193
16.2367
17.3284
18.5
19.7575
21.1073
22.5562
24.1114
25.7803
27.5708
29.4907
31.5482
33.7512
36.1079
38.6255
41.3133
44.1807
47.2371
50.4925
53.9582
57.6436
61.5548
65.698
70.0794
74.705
79.5803
84.7104
90.0997
95.7519
101.67
107.855
114.31
121.034
128.025
135.284
142.806
150.588
158.627
166.915
175.447
184.216
193.213
202.429
211.855
221.48
231.292
241.279
251.427
261.724
272.155
282.703
293.354
304.091
314.898
325.755
336.646
347.552
358.453
369.331
380.166
390.937
401.626
412.213
422.676
432.996
443.152
453.126
462.897
472.446
481.753
490.8
499.569
508.043
516.203
524.036
531.523
538.651
545.404
551.77
557.737
563.294
568.432
573.141
577.414
581.245
584.63
587.564
590.046
592.072
593.641
594.753
595.405
595.598
595.356
594.642
593.464
591.843
589.783
587.29
584.369
581.029
577.276
573.119
568.568
563.636
558.336
552.679
546.679
540.353
533.716
526.784
519.573
512.099
504.379
496.431
488.273
479.924
471.403
462.73
453.925
445.007
435.994
426.904
417.754
408.559
399.337
390.101
380.869
371.656
362.478
353.351
344.291
335.316
326.443
317.69
309.077
300.62
292.343
284.266
276.413
268.804
261.463
254.416
247.684
241.275
235.214
229.506
224.176
219.137
214.481
21.3003
7.81872
5.28976
4.45075
4.11296
3.99245
3.98999
4.0645
4.19455
4.36832
4.57797
4.8203
5.0933
5.3959
5.72777
6.08918
6.48102
6.90442
7.36103
7.85303
8.38298
8.95385
9.569
10.2322
10.9477
11.72
12.554
13.4551
14.4291
15.4823
16.6215
17.8539
19.1871
20.6292
22.1887
23.8747
25.6964
27.6636
29.7861
32.074
34.5372
37.1857
40.0296
43.0783
46.3408
49.8271
53.5468
57.5095
61.7243
66.2
70.9501
75.9773
81.2836
86.8713
92.7423
98.898
105.339
112.064
119.073
126.363
133.931
141.772
149.881
158.252
166.879
175.752
184.865
194.207
203.769
213.541
223.511
233.668
244
254.495
265.139
275.918
286.82
297.829
308.93
320.108
331.346
342.629
353.94
365.262
376.577
387.868
399.116
410.303
421.411
432.421
443.314
454.071
464.673
475.102
485.338
495.364
505.16
514.709
523.991
532.991
541.689
550.071
558.119
565.819
573.156
580.117
586.687
592.853
598.604
603.931
608.825
613.279
617.284
620.836
623.934
626.572
628.746
630.464
631.72
632.515
632.853
632.728
632.163
631.11
629.624
627.695
625.329
622.533
619.313
615.676
611.629
607.178
602.331
597.097
591.489
585.518
579.196
572.536
565.554
558.263
550.68
542.819
534.695
526.324
517.723
508.908
499.898
490.713
481.372
471.894
462.297
452.601
442.824
432.982
423.091
413.167
403.227
393.286
383.363
373.473
363.635
353.865
344.184
334.612
325.169
315.875
306.752
297.826
289.115
280.641
272.436
264.528
256.951
249.734
242.908
236.47
230.422
224.789
219.478
214.63
21.3503
7.79738
5.26501
4.42719
4.09654
3.98724
3.99655
4.08374
4.22893
4.42112
4.65408
4.9243
5.23008
5.571
5.94749
6.3608
6.81288
7.30615
7.84365
8.42906
9.06666
9.7613
10.5184
11.344
12.2448
13.2282
14.3022
15.4752
16.7563
18.1555
19.6833
21.3509
23.1699
25.1522
27.3101
29.6558
32.2023
34.9621
37.9474
41.1698
44.6404
48.3701
52.3689
56.6453
61.2066
66.06
71.2127
76.6698
82.4357
88.5162
94.9143
101.628
108.65
115.971
123.585
131.486
139.665
148.114
156.824
165.785
174.986
184.416
194.064
203.919
213.969
224.201
234.603
245.163
255.869
266.708
277.668
288.737
299.901
311.148
322.465
333.84
345.258
356.707
368.173
379.641
391.098
402.528
413.917
425.251
436.513
447.689
458.762
469.717
480.536
491.205