/*--------------------------------*- C++ -*----------------------------------*\
| =========                 |                                                 |
| \\      /  F ield         | OpenFOAM: The Open Source CFD Toolbox           |
|  \\    /   O peration     | Version:  v2006                                 |
|   \\  /    A nd           | Website:  www.openfoam.com                      |
|    \\/     M anipulation  |                                                 |
\*---------------------------------------------------------------------------*/
FoamFile
{
    version     2.0;
    format      ascii;
    class       volScalarField;
    location    "200";
    object      k;
}
// * * * * * * * * * * * * * * * * * * * * * * * * * * * * * * * * * * * * * //

dimensions      [0 2 -2 0 0 0 0];


internalField   nonuniform List<scalar> 
12225
(
0.571497
0.987648
1.28116
1.45558
1.54167
1.57743
1.57567
1.56724
1.54714
1.52373
1.50047
1.47801
1.45796
1.43901
1.4234
1.40767
1.39704
1.3823
0.43845
0.49688
0.521949
0.534909
0.542875
0.547415
0.550223
0.552224
0.556071
0.55937
0.565618
0.571043
0.579601
0.586805
0.596796
0.605221
0.615301
0.62514
0.38757
0.417492
0.424187
0.421531
0.415046
0.404957
0.393816
0.382789
0.371957
0.362402
0.353269
0.346085
0.339003
0.334318
0.329129
0.326693
0.32305
0.322335
0.37618
0.384817
0.388124
0.387417
0.385436
0.381133
0.375689
0.369557
0.36312
0.356559
0.350112
0.3438
0.337822
0.332063
0.326779
0.321681
0.317167
0.312722
0.374178
0.375374
0.376397
0.37593
0.374799
0.372506
0.369617
0.366136
0.362485
0.35847
0.354557
0.35037
0.346521
0.342385
0.338793
0.334821
0.331607
0.327848
0.373737
0.372544
0.371997
0.371082
0.369917
0.368266
0.36634
0.364031
0.361641
0.358968
0.356373
0.353537
0.350916
0.348048
0.345521
0.342702
0.340349
0.337627
0.373769
0.371725
0.370231
0.368831
0.367465
0.36594
0.364345
0.362552
0.360734
0.35875
0.356813
0.354731
0.352769
0.350666
0.348748
0.346672
0.344852
0.342831
0.373818
0.371563
0.369621
0.36786
0.366251
0.364663
0.363122
0.361522
0.359945
0.358298
0.356695
0.355026
0.353429
0.351769
0.350213
0.348588
0.347103
0.345524
0.373833
0.371554
0.369458
0.367511
0.365722
0.364025
0.362428
0.360861
0.359355
0.357852
0.356401
0.354943
0.353541
0.35213
0.350785
0.349426
0.348149
0.346843
0.373832
0.37156
0.369425
0.36741
0.36553
0.363752
0.362086
0.360493
0.358981
0.357516
0.356115
0.354748
0.353437
0.352151
0.350919
0.349706
0.348551
0.347405
0.37383
0.371561
0.369417
0.367384
0.365468
0.363653
0.361942
0.360317
0.358779
0.357309
0.355912
0.35457
0.353289
0.352054
0.350872
0.349729
0.348635
0.347575
0.373828
0.371559
0.369412
0.367375
0.365448
0.36362
0.36189
0.360247
0.358691
0.35721
0.355803
0.35446
0.353181
0.351958
0.35079
0.34967
0.348599
0.347571
0.373827
0.371557
0.369407
0.367369
0.365437
0.363603
0.361865
0.360214
0.358646
0.357156
0.35574
0.354391
0.353108
0.351884
0.350716
0.349602
0.348537
0.347521
0.373827
0.371555
0.369403
0.367362
0.365428
0.363591
0.361848
0.360193
0.358619
0.357123
0.3557
0.354346
0.353057
0.351828
0.350657
0.349541
0.348475
0.347459
0.373826
0.371553
0.369399
0.367357
0.36542
0.363581
0.361835
0.360177
0.3586
0.3571
0.355673
0.354315
0.353021
0.351789
0.350614
0.349494
0.348425
0.347406
0.373826
0.371552
0.369396
0.367352
0.365413
0.363572
0.361824
0.360163
0.358584
0.357082
0.355652
0.354291
0.352994
0.351759
0.350581
0.349458
0.348386
0.347364
0.373825
0.371551
0.369395
0.367349
0.365408
0.363566
0.361816
0.360153
0.358571
0.357067
0.355635
0.354272
0.352973
0.351735
0.350555
0.34943
0.348356
0.347331
0.373825
0.371551
0.369393
0.367347
0.365405
0.363561
0.36181
0.360145
0.358563
0.357057
0.355623
0.354258
0.352958
0.351718
0.350536
0.349409
0.348334
0.347308
0.373825
0.371551
0.369393
0.367347
0.365404
0.36356
0.361808
0.360143
0.358559
0.357052
0.355618
0.354252
0.352951
0.35171
0.350528
0.3494
0.348324
0.347297
0.373825
0.371551
0.369394
0.367348
0.365406
0.363562
0.361811
0.360146
0.358562
0.357056
0.355622
0.354256
0.352955
0.351715
0.350532
0.349405
0.348329
0.347302
0.373826
0.371552
0.369396
0.367351
0.36541
0.363567
0.361816
0.360153
0.358571
0.357065
0.355633
0.354269
0.352969
0.35173
0.35055
0.349423
0.348349
0.347323
0.373826
0.371553
0.369398
0.367355
0.365416
0.363575
0.361828
0.360168
0.358591
0.357092
0.355665
0.354306
0.353012
0.351779
0.350603
0.34948
0.348408
0.347383
0.373826
0.371555
0.369401
0.367363
0.365432
0.363605
0.361875
0.360237
0.358681
0.357203
0.355794
0.354451
0.353167
0.351939
0.350762
0.349635
0.348552
0.347512
0.373826
0.371556
0.369413
0.367418
0.365545
0.363794
0.362138
0.360572
0.359071
0.357632
0.35624
0.354896
0.353589
0.352323
0.35109
0.349894
0.348728
0.347601
0.373819
0.371564
0.369582
0.367846
0.366223
0.364712
0.363219
0.361754
0.360267
0.358787
0.357288
0.3558
0.354306
0.352833
0.351361
0.349924
0.348495
0.347109
0.373767
0.371946
0.370917
0.369977
0.368913
0.367767
0.366326
0.364737
0.362934
0.361062
0.35906
0.357054
0.354971
0.352925
0.350845
0.348825
0.346791
0.344839
0.374093
0.375201
0.37726
0.37756
0.377092
0.375804
0.373488
0.370864
0.367802
0.364686
0.361328
0.358027
0.354602
0.351291
0.347922
0.3447
0.341472
0.338414
0.377677
0.394076
0.402944
0.402353
0.400307
0.396045
0.390665
0.385166
0.379133
0.373303
0.367221
0.361476
0.355719
0.350305
0.345128
0.340198
0.335726
0.331325
0.405777
0.438977
0.451189
0.45581
0.459111
0.462261
0.464972
0.467229
0.469224
0.470844
0.472492
0.473929
0.475548
0.477076
0.479214
0.480839
0.483679
0.485395
0.479012
0.684927
0.865146
0.990809
1.09437
1.17583
1.23938
1.28341
1.31504
1.33206
1.3432
1.34353
1.34141
1.33629
1.32783
1.31772
1.30679
1.29535
0.00435738
0.00714267
0.0100734
0.0126177
0.0146795
0.0163034
0.0176521
0.0188848
0.0200059
0.0210713
0.0221386
0.0232643
0.0245213
0.0260316
0.0278515
0.0298999
0.0321113
0.0344727
0.0369906
0.0396835
0.0425651
0.0456519
0.0489499
0.0524687
0.0562089
0.0601796
0.0643855
0.0688014
0.0734027
0.0781852
0.0831352
0.0882526
0.0935268
0.0989597
0.104541
0.110276
0.116158
0.122199
0.128411
0.134831
0.141494
0.148473
0.155621
0.162939
0.170418
0.178073
0.185896
0.193897
0.202071
0.210427
0.218958
0.227675
0.236569
0.245652
0.254915
0.264367
0.273998
0.283819
0.293819
0.304007
0.314371
0.32492
0.33564
0.34654
0.357606
0.368845
0.38024
0.3918
0.403506
0.415366
0.42736
0.439495
0.45175
0.46413
0.476614
0.489206
0.501883
0.514648
0.52748
0.540379
0.553321
0.566308
0.579315
0.59234
0.605357
0.618365
0.631336
0.644265
0.657125
0.669904
0.682577
0.695118
0.7075
0.719695
0.731674
0.743411
0.754895
0.766145
0.777254
0.788113
0.798722
0.809059
0.819115
0.82887
0.838308
0.84741
0.856159
0.864538
0.87253
0.880118
0.887285
0.894016
0.900294
0.906105
0.911435
0.916272
0.920603
0.924418
0.927708
0.930463
0.932681
0.934358
0.935501
0.936113
0.936215
0.935635
0.934494
0.932768
0.930674
0.928091
0.924882
0.921196
0.917011
0.912353
0.907242
0.901698
0.895744
0.889405
0.882705
0.875676
0.868373
0.860827
0.853071
0.845139
0.837066
0.828888
0.820638
0.812354
0.804071
0.795823
0.787643
0.779564
0.771618
0.763837
0.756249
0.748879
0.741754
0.734894
0.728317
0.722037
0.716068
0.710411
0.705074
0.700062
0.695363
0.690965
0.686987
0.684983
0.685198
0.68542
0.686001
0.686861
0.687963
0.689229
0.690584
0.691688
0.692582
0.692648
0.690472
0.669801
0.0108242
0.0177161
0.0243952
0.0295447
0.0338199
0.0375494
0.040912
0.0440737
0.0472196
0.050466
0.053878
0.0574859
0.0612997
0.0653159
0.0695258
0.0739241
0.0785077
0.0832858
0.0882763
0.0935028
0.0989882
0.104754
0.110816
0.117187
0.123875
0.130887
0.138226
0.145892
0.153884
0.162198
0.170827
0.179774
0.189038
0.198622
0.208529
0.218762
0.229312
0.240159
0.251305
0.262753
0.274502
0.286552
0.29889
0.311525
0.32446
0.337703
0.351258
0.365131
0.379326
0.393848
0.408701
0.42389
0.439419
0.455293
0.471513
0.488085
0.50501
0.522292
0.53993
0.557928
0.576285
0.595003
0.614079
0.633514
0.653304
0.673448
0.693941
0.71478
0.735958
0.757471
0.77931
0.80147
0.82394
0.846712
0.869773
0.893114
0.91672
0.94058
0.964678
0.989001
1.01353
1.03825
1.06314
1.08819
1.11336
1.13865
1.16403
1.18946
1.21494
1.24042
1.26588
1.29129
1.31659
1.34176
1.36674
1.39147
1.4159
1.43994
1.46349
1.48671
1.5096
1.53214
1.5543
1.57605
1.59734
1.61815
1.63843
1.65815
1.67726
1.69574
1.71355
1.73064
1.74698
1.76253
1.77727
1.79115
1.80414
1.81621
1.82733
1.83748
1.84663
1.85478
1.86189
1.86797
1.87302
1.87703
1.87977
1.88123
1.88185
1.88168
1.88023
1.87773
1.87421
1.86969
1.8642
1.85779
1.8505
1.84236
1.83345
1.82381
1.81352
1.80264
1.79123
1.77937
1.76712
1.75455
1.74173
1.72874
1.71564
1.70251
1.68943
1.67645
1.66366
1.65111
1.63887
1.627
1.61555
1.60459
1.59414
1.58425
1.57496
1.56628
1.55823
1.55081
1.54404
1.53788
1.53237
1.52772
1.52389
1.52072
1.51808
1.51582
1.51378
1.51179
1.50963
1.50709
1.50384
1.49975
1.49204
1.46765
0.0168235
0.0287145
0.0377482
0.0445341
0.0502506
0.0554041
0.060271
0.0650378
0.0698414
0.0747755
0.0798965
0.0852324
0.0907926
0.0965776
0.102586
0.108817
0.115278
0.121982
0.12895
0.136205
0.14377
0.151668
0.159917
0.168535
0.177533
0.186921
0.196705
0.206891
0.217478
0.228465
0.239849
0.25163
0.263805
0.276372
0.28933
0.302674
0.3164
0.330506
0.344991
0.359853
0.375093
0.390709
0.406704
0.42308
0.439842
0.456995
0.474544
0.492493
0.510848
0.529613
0.548791
0.568387
0.588405
0.608848
0.629718
0.651019
0.672751
0.694918
0.717519
0.740554
0.764023
0.787924
0.812256
0.837015
0.862198
0.8878
0.913816
0.940239
0.967061
0.994275
1.02187
1.04984
1.07817
1.10684
1.13585
1.16518
1.19481
1.22473
1.25492
1.28536
1.31603
1.3469
1.37796
1.40919
1.44055
1.47202
1.50357
1.53518
1.56682
1.59844
1.63002
1.66153
1.69291
1.72414
1.75518
1.78598
1.81651
1.84673
1.87663
1.90616
1.93532
1.96404
1.99229
2.02002
2.04719
2.07376
2.09967
2.12487
2.14933
2.17299
2.1958
2.21773
2.23871
2.2587
2.27766
2.29555
2.31232
2.32793
2.34234
2.35553
2.36746
2.3781
2.38743
2.39545
2.40212
2.40745
2.41141
2.41377
2.41476
2.41474
2.41324
2.4104
2.40625
2.40084
2.3942
2.38638
2.37744
2.36742
2.3564
2.34446
2.33166
2.3181
2.30385
2.289
2.27363
2.25782
2.24168
2.22529
2.20873
2.1921
2.17549
2.15898
2.14266
2.12661
2.11091
2.09563
2.08084
2.06661
2.05298
2.04001
2.02773
2.01617
2.00535
1.99528
1.98596
1.97736
1.96948
1.96231
1.95584
1.95001
1.94466
1.93963
1.93477
1.92988
1.92478
1.91933
1.9133
1.90676
1.89767
1.87828
0.0216214
0.0393241
0.0506528
0.0589396
0.0658685
0.0721151
0.0780363
0.0838544
0.0897195
0.0957327
0.101956
0.108424
0.115149
0.122136
0.129385
0.136902
0.144694
0.152777
0.161174
0.169906
0.178999
0.188475
0.198354
0.208651
0.21938
0.230549
0.242162
0.25422
0.26672
0.279665
0.293055
0.306891
0.32117
0.335889
0.351046
0.366639
0.382664
0.39912
0.416007
0.433325
0.451072
0.469253
0.487868
0.506922
0.526419
0.546365
0.566764
0.587622
0.608945
0.630736
0.653
0.675743
0.698967
0.722677
0.746875
0.771565
0.796749
0.822427
0.848602
0.875273
0.902439
0.930099
0.95825
0.98689
1.01601
1.04562
1.0757
1.10624
1.13724
1.16869
1.20057
1.23289
1.26561
1.29874
1.33225
1.36612
1.40035
1.4349
1.46976
1.50491
1.54032
1.57597
1.61184
1.64789
1.6841
1.72044
1.75688
1.79338
1.82991
1.86644
1.90293
1.93935
1.97564
2.01179
2.04774
2.08346
2.11891
2.15405
2.18883
2.22322
2.25717
2.29063
2.32354
2.35586
2.38754
2.41852
2.44875
2.47817
2.50673
2.53437
2.56104
2.58669
2.61126
2.63469
2.65693
2.67794
2.69766
2.71605
2.73306
2.74865
2.76278
2.77544
2.78657
2.79617
2.80422
2.8107
2.81561
2.81881
2.82025
2.82044
2.81899
2.81598
2.81145
2.80543
2.79798
2.78913
2.77897
2.76754
2.75492
2.7412
2.72646
2.71079
2.69428
2.67704
2.65915
2.64071
2.62183
2.60261
2.58315
2.56356
2.54392
2.52435
2.50494
2.48578
2.46696
2.44856
2.43066
2.41333
2.39664
2.38063
2.36536
2.35085
2.33712
2.32418
2.31201
2.3006
2.28991
2.27991
2.27055
2.26177
2.25342
2.24538
2.23748
2.22956
2.22148
2.21316
2.20452
2.19578
2.18541
2.16872
0.0254039
0.0490814
0.0627755
0.072575
0.0806708
0.0879046
0.094713
0.101361
0.108023
0.114818
0.121824
0.129087
0.136634
0.144477
0.152625
0.161086
0.169871
0.178997
0.188484
0.198351
0.208622
0.219316
0.23045
0.242038
0.254091
0.266616
0.279617
0.293098
0.307059
0.321503
0.336429
0.351835
0.367721
0.384084
0.400923
0.418236
0.436023
0.454284
0.473018
0.492225
0.511909
0.532072
0.552718
0.573851
0.595478
0.617606
0.64024
0.663387
0.687051
0.71124
0.735958
0.761212
0.787005
0.813343
0.840229
0.867668
0.895661
0.924212
0.953322
0.982991
1.01322
1.04401
1.07535
1.10725
1.1397
1.17269
1.20623
1.24029
1.27488
1.30998
1.34558
1.38167
1.41824
1.45527
1.49273
1.53063
1.56892
1.6076
1.64664
1.68601
1.72569
1.76566
1.80587
1.84631
1.88693
1.92772
1.96862
2.00961
2.05065
2.09171
2.13273
2.17369
2.21453
2.25522
2.29572
2.33597
2.37593
2.41556
2.4548
2.4936
2.53191
2.56967
2.60684
2.64334
2.67913
2.71414
2.74831
2.78159
2.81392
2.84522
2.87545
2.90454
2.93242
2.95905
2.98436
3.00829
3.03079
3.05181
3.07129
3.08919
3.10546
3.12008
3.133
3.14419
3.15364
3.16133
3.16725
3.17134
3.17344
3.17395
3.17269
3.16968
3.16494
3.15852
3.15045
3.1408
3.12963
3.11701
3.10301
3.08773
3.07126
3.05368
3.03512
3.01566
2.99541
2.97449
2.953
2.93106
2.90878
2.88626
2.86363
2.84099
2.81844
2.79608
2.77403
2.75236
2.73116
2.71051
2.69048
2.67113
2.65251
2.63465
2.61758
2.60129
2.58579
2.57105
2.55703
2.54369
2.53097
2.5188
2.50707
2.49565
2.48442
2.47323
2.46202
2.45075
2.43945
2.42842
2.41646
2.40039
0.0284569
0.0578608
0.073807
0.0850685
0.0942814
0.102436
0.11004
0.117398
0.124713
0.132123
0.139725
0.147582
0.155736
0.164212
0.173029
0.182199
0.191738
0.201661
0.211986
0.222731
0.233914
0.245551
0.257657
0.270244
0.283321
0.296894
0.310969
0.325549
0.340636
0.356232
0.372337
0.388951
0.406073
0.423705
0.441844
0.460493
0.479651
0.499321
0.519504
0.540203
0.561423
0.583168
0.605443
0.628256
0.651613
0.675522
0.699988
0.725021
0.750626
0.776811
0.803583
0.830949
0.858916
0.887488
0.916672
0.946473
0.976894
1.00794
1.03961
1.07191
1.10484
1.1384
1.1726
1.20741
1.24286
1.27892
1.31559
1.35287
1.39075
1.42922
1.46826
1.50786
1.54801
1.5887
1.62989
1.67157
1.71372
1.75632
1.79933
1.84274
1.88651
1.93061
1.97501
2.01968
2.06457
2.10966
2.1549
2.20026
2.24568
2.29114
2.33658
2.38196
2.42723
2.47235
2.51725
2.5619
2.60624
2.65021
2.69376
2.73682
2.77935
2.82128
2.86255
2.9031
2.94287
2.98178
3.01979
3.05681
3.09279
3.12766
3.16135
3.1938
3.22493
3.25469
3.28302
3.30983
3.33509
3.35872
3.38067
3.40089
3.41933
3.43595
3.4507
3.46356
3.47449
3.48347
3.4905
3.49555
3.49845
3.49942
3.49849
3.49561
3.4908
3.4841
3.47556
3.46522
3.45317
3.43947
3.4242
3.40745
3.38933
3.36993
3.34935
3.32772
3.30513
3.28172
3.25759
3.23288
3.20769
3.18216
3.15639
3.13051
3.10463
3.07887
3.05332
3.02809
3.00327
2.97895
2.9552
2.93208
2.90966
2.88798
2.86706
2.84691
2.82755
2.80894
2.79106
2.77387
2.75731
2.74132
2.7258
2.71067
2.69581
2.68114
2.66662
2.65228
2.63822
2.62474
2.61084
2.59413
0.0323785
0.0657614
0.0836282
0.0961878
0.106412
0.115406
0.12373
0.13172
0.139602
0.147531
0.155622
0.163954
0.172582
0.181546
0.190873
0.200583
0.210695
0.221225
0.232188
0.243602
0.255479
0.267835
0.28068
0.294026
0.30788
0.32225
0.337139
0.352553
0.368494
0.384965
0.401967
0.419503
0.437573
0.45618
0.475326
0.495014
0.515245
0.536025
0.557357
0.579247
0.601701
0.624725
0.648326
0.672514
0.697296
0.722681
0.748678
0.775296
0.802544
0.83043
0.858964
0.888154
0.918009
0.948535
0.979741
1.01163
1.04422
1.0775
1.11148
1.14617
1.18157
1.21767
1.25449
1.29202
1.33025
1.36919
1.40882
1.44915
1.49015
1.53183
1.57416
1.61714
1.66075
1.70497
1.74978
1.79515
1.84107
1.8875
1.93442
1.9818
2.02959
2.07778
2.12632
2.17518
2.2243
2.27366
2.32321
2.37289
2.42268
2.47251
2.52233
2.57211
2.62177
2.67127
2.72056
2.76956
2.81822
2.86648
2.91428
2.96156
3.00825
3.05429
3.09961
3.14414
3.18783
3.23059
3.27237
3.31308
3.35266
3.39104
3.42815
3.46391
3.49826
3.53112
3.56243
3.59212
3.62012
3.64637
3.6708
3.69336
3.71399
3.73265
3.74928
3.76385
3.77632
3.78667
3.79489
3.80095
3.80474
3.8063
3.8058
3.80315
3.79837
3.79148
3.78254
3.77161
3.75875
3.74404
3.72756
3.70941
3.68967
3.66846
3.64588
3.62205
3.5971
3.57114
3.54431
3.51672
3.48851
3.4598
3.43072
3.40141
3.37197
3.34253
3.3132
3.28409
3.2553
3.22693
3.19905
3.17174
3.14507
3.1191
3.09385
3.06936
3.04563
3.02266
3.00044
2.97893
2.95809
2.93788
2.91823
2.89908
2.88035
2.86199
2.84401
2.82649
2.80954
2.79346
2.77734
2.75927
0.0371454
0.0727167
0.0921259
0.105779
0.116881
0.126619
0.135589
0.144149
0.152539
0.160928
0.169443
0.178176
0.187194
0.196548
0.206273
0.216398
0.226943
0.237927
0.249365
0.261273
0.273662
0.286546
0.299934
0.313836
0.328259
0.343211
0.358696
0.374721
0.391289
0.408404
0.42607
0.444291
0.463071
0.482413
0.502323
0.522805
0.543866
0.56551
0.587744
0.610578
0.634017
0.658073
0.682753
0.708069
0.734031
0.760649
0.787935
0.8159
0.844554
0.87391
0.903979
0.93477
0.966294
0.998563
1.03158
1.06537
1.09992
1.13525
1.17137
1.20828
1.24598
1.28447
1.32377
1.36387
1.40477
1.44646
1.48894
1.5322
1.57624
1.62105
1.6666
1.71289
1.7599
1.80761
1.85599
1.90501
1.95467
2.00491
2.05571
2.10704
2.15886
2.21113
2.26381
2.31685
2.37021
2.42384
2.47769
2.53171
2.58585
2.64006
2.69427
2.74842
2.80247
2.85633
2.90996
2.96329
3.01624
3.06876
3.12077
3.17221
3.22301
3.2731
3.32242
3.37088
3.41841
3.46496
3.51043
3.55475
3.59786
3.63968
3.68013
3.71913
3.75662
3.79252
3.82676
3.85926
3.88996
3.91878
3.94566
3.97053
3.99334
4.01403
4.03255
4.04885
4.06289
4.07464
4.08408
4.09118
4.0959
4.09815
4.09815
4.0958
4.09111
4.0841
4.07483
4.06337
4.04976
4.03409
4.01644
3.9969
3.97558
3.95257
3.92799
3.90196
3.8746
3.84604
3.81642
3.78587
3.75451
3.72249
3.68995
3.657
3.62378
3.59042
3.55704
3.52376
3.49067
3.4579
3.42553
3.39365
3.36233
3.33164
3.30164
3.27237
3.24385
3.2161
3.18912
3.16289
3.13741
3.11264
3.08857
3.06514
3.04233
3.02013
2.99857
2.97775
2.95783
2.93903
2.9205
2.90067
0.0415384
0.0785017
0.0991718
0.113744
0.125598
0.135986
0.14553
0.154602
0.163451
0.172256
0.181149
0.190232
0.199581
0.209253
0.219293
0.229734
0.240601
0.251915
0.263693
0.275949
0.288697
0.301946
0.315708
0.329992
0.344805
0.360156
0.37605
0.392495
0.409496
0.427059
0.44519
0.463896
0.483183
0.503057
0.523526
0.544597
0.566279
0.58858
0.611509
0.635078
0.659296
0.684176
0.709729
0.735968
0.762906
0.790558
0.818935
0.848054
0.877926
0.908566
0.939989
0.972206
1.00523
1.03908
1.07376
1.10929
1.14567
1.18291
1.22104
1.26004
1.29993
1.34072
1.3824
1.42499
1.46847
1.51284
1.55811
1.60426
1.65129
1.69918
1.74792
1.7975
1.84789
1.89906
1.95101
2.00369
2.05708
2.11114
2.16584
2.22113
2.27698
2.33334
2.39016
2.4474
2.505
2.56291
2.62108
2.67943
2.73792
2.79648
2.85506
2.91357
2.97196
3.03015
3.08808
3.14568
3.20286
3.25956
3.31571
3.37124
3.42606
3.4801
3.5333
3.58558
3.63685
3.68704
3.73609
3.7839
3.8304
3.87551
3.91917
3.96128
4.00178
4.04058
4.07762
4.11281
4.14608
4.17737
4.2066
4.23369
4.2586
4.28125
4.3016
4.31958
4.33516
4.34829
4.35894
4.36709
4.37272
4.37572
4.37625
4.37424
4.36969
4.36261
4.35306
4.34109
4.32679
4.3102
4.29143
4.27055
4.24766
4.22288
4.19631
4.16807
4.1383
4.10712
4.07466
4.04107
4.00649
3.97106
3.9349
3.89818
3.86101
3.82354
3.78589
3.74819
3.71055
3.6731
3.63594
3.59917
3.56287
3.52714
3.49204
3.45764
3.42398
3.39109
3.35902
3.32776
3.29734
3.26776
3.23902
3.21112
3.18408
3.15791
3.13267
3.10849
3.08551
3.06394
3.04292
3.02121
0.0454128
0.0831053
0.104769
0.120093
0.132575
0.143517
0.153559
0.163083
0.172342
0.181518
0.190748
0.200137
0.209767
0.219701
0.229988
0.240666
0.251764
0.263306
0.27531
0.287792
0.300766
0.314243
0.328234
0.34275
0.3578
0.373392
0.389534
0.406235
0.423504
0.441347
0.459774
0.478794
0.498415
0.518647
0.539501
0.560987
0.583115
0.605898
0.629348
0.653478
0.678301
0.703833
0.730089
0.757084
0.784835
0.813359
0.842672
0.872791
0.903733
0.935516
0.968156
1.00167
1.03607
1.07138
1.10761
1.14478
1.18289
1.22196
1.26201
1.30304
1.34506
1.38808
1.4321
1.47712
1.52315
1.57019
1.61822
1.66725
1.71726
1.76823
1.82016
1.87303
1.9268
1.98147
2.03699
2.09334
2.15048
2.20837
2.26698
2.32625
2.38614
2.4466
2.50757
2.56901
2.63084
2.69302
2.75546
2.81812
2.88092
2.9438
3.00667
3.06948
3.13213
3.19456
3.2567
3.31845
3.37975
3.44051
3.50065
3.5601
3.61879
3.67662
3.73353
3.78942
3.84424
3.89788
3.95028
4.00136
4.05104
4.09923
4.14586
4.19086
4.23414
4.27563
4.31525
4.35292
4.38857
4.42213
4.45352
4.48267
4.50952
4.53399
4.55604
4.57559
4.59261
4.60704
4.61885
4.62801
4.63448
4.63823
4.63929
4.63766
4.63326
4.62612
4.61631
4.60389
4.58893
4.57148
4.55162
4.52945
4.50505
4.47854
4.45001
4.4196
4.38743
4.35363
4.31834
4.2817
4.24385
4.20494
4.16512
4.12453
4.0833
4.04159
3.99953
3.95726
3.9149
3.87257
3.83041
3.78853
3.74702
3.706
3.66555
3.62575
3.58669
3.54843
3.51101
3.47449
3.43891
3.40431
3.37074
3.33824
3.30685
3.27662
3.24765
3.22006
3.19399
3.16962
3.1461
3.12249
0.0487321
0.0865894
0.108994
0.12491
0.137895
0.149292
0.159752
0.169661
0.179273
0.18877
0.198291
0.207941
0.217805
0.227948
0.238422
0.249269
0.260521
0.272204
0.284339
0.296944
0.310033
0.323621
0.337719
0.35234
0.367495
0.383194
0.399448
0.416267
0.433662
0.451644
0.470224
0.489415
0.509227
0.529674
0.550769
0.572526
0.594958
0.618081
0.64191
0.666462
0.691754
0.717804
0.744631
0.772256
0.800697
0.829974
0.860109
0.891122
0.923033
0.955863
0.989633
1.02436
1.06007
1.09677
1.13449
1.17324
1.21305
1.25391
1.29586
1.33889
1.38303
1.42827
1.47463
1.5221
1.5707
1.62041
1.67123
1.72315
1.77617
1.83026
1.88541
1.9416
1.9988
2.05698
2.11611
2.17615
2.23706
2.2988
2.36132
2.42457
2.4885
2.55304
2.61814
2.68373
2.74975
2.81613
2.88279
2.94967
3.01668
3.08376
3.15081
3.21777
3.28454
3.35104
3.4172
3.48292
3.54812
3.61271
3.67662
3.73976
3.80205
3.8634
3.92373
3.98297
4.04102
4.09782
4.15327
4.20729
4.25982
4.31076
4.36005
4.4076
4.45334
4.49719
4.53908
4.57892
4.61665
4.6522
4.68548
4.71642
4.74496
4.77103
4.79457
4.81551
4.8338
4.84939
4.86224
4.87231
4.87957
4.88398
4.88555
4.88428
4.88005
4.87285
4.8628
4.84996
4.83438
4.81611
4.79524
4.77184
4.746
4.71782
4.68741
4.65489
4.62037
4.58401
4.54593
4.50627
4.46518
4.42282
4.37933
4.33486
4.28955
4.24356
4.19704
4.15012
4.10294
4.05565
4.00838
3.96126
3.91441
3.86795
3.822
3.77667
3.73205
3.68824
3.64533
3.6034
3.56253
3.5228
3.48429
3.4471
3.41129
3.37696
3.34422
3.31321
3.28405
3.25689
3.23092
3.20546
0.0514902
0.0890419
0.111958
0.128313
0.141682
0.153433
0.164225
0.174444
0.184344
0.194105
0.203863
0.213724
0.223771
0.234071
0.244677
0.255632
0.26697
0.27872
0.290906
0.303547
0.316661
0.330263
0.344368
0.35899
0.374143
0.389839
0.406092
0.422915
0.440323
0.45833
0.476949
0.496196
0.516087
0.536637
0.557863
0.579782
0.602411
0.62577
0.649877
0.674753
0.70042
0.726899
0.754214
0.782389
0.811448
0.841415
0.872314
0.90417
0.937008
0.970851
1.00572
1.04165
1.07865
1.11675
1.15597
1.19632
1.23784
1.28053
1.32441
1.36949
1.41579
1.46332
1.51207
1.56206
1.61329
1.66574
1.71942
1.77431
1.83041
1.88768
1.94611
2.00568
2.06635
2.12809
2.19086
2.25461
2.31931
2.38489
2.45131
2.51851
2.58643
2.65499
2.72414
2.7938
2.86389
2.93434
3.00507
3.076
3.14704
3.21811
3.28912
3.35998
3.43061
3.50091
3.5708
3.64018
3.70896
3.77705
3.84437
3.91083
3.97634
4.04082
4.10418
4.16634
4.22721
4.28672
4.34478
4.40132
4.45626
4.50951
4.561
4.61067
4.65843
4.70421
4.74794
4.78954
4.82895
4.86609
4.90089
4.93327
4.96318
4.99054
5.01528
5.03734
5.05667
5.07322
5.08692
5.09776
5.10568
5.11066
5.11269
5.11174
5.10767
5.1004
5.09012
5.07689
5.06073
5.04172
5.0199
4.99535
4.96816
4.93842
4.90622
4.8717
4.83495
4.79613
4.75536
4.71278
4.66855
4.62282
4.57573
4.52745
4.47812
4.42791
4.37695
4.32541
4.27344
4.22119
4.1688
4.11643
4.0642
4.01227
3.96078
3.90985
3.85962
3.81022
3.76175
3.71436
3.66814
3.62324
3.57976
3.53784
3.4976
3.45916
3.42266
3.38825
3.35603
3.32614
3.29782
3.27063
0.0537002
0.0905663
0.113785
0.130438
0.144077
0.156081
0.167115
0.177564
0.18768
0.197639
0.207575
0.217589
0.227765
0.238167
0.24885
0.259857
0.271224
0.282981
0.295153
0.307762
0.320826
0.334364
0.348393
0.362931
0.377995
0.393602
0.409768
0.426512
0.443849
0.461799
0.480379
0.499608
0.519505
0.54009
0.561383
0.583405
0.606176
0.629717
0.654051
0.679205
0.705207
0.732086
0.759868
0.788583
0.818257
0.848921
0.880603
0.91333
0.947132
0.982037
1.01807
1.05526
1.09364
1.13322
1.17403
1.2161
1.25944
1.30407
1.35002
1.39728
1.44588
1.49583
1.54712
1.59977
1.65376
1.70909
1.76576
1.82374
1.88302
1.94357
2.00537
2.06839
2.13258
2.19792
2.26434
2.33181
2.40027
2.46966
2.53991
2.61097
2.68276
2.7552
2.82823
2.90176
2.97571
3.05
3.12453
3.19922
3.27397
3.34869
3.4233
3.49769
3.57177
3.64544
3.71861
3.79119
3.86307
3.93417
4.00439
4.07365
4.14185
4.20891
4.27474
4.33927
4.4024
4.46405
4.52415
4.58262
4.63939
4.69437
4.74751
4.79872
4.84794
4.8951
4.94014
4.98298
5.02355
5.0618
5.09765
5.13104
5.16189
5.19014
5.21573
5.23859
5.25866
5.27589
5.29023
5.30164
5.31007
5.31548
5.31788
5.31719
5.31327
5.30591
5.29542
5.28182
5.26515
5.24546
5.22279
5.1972
5.16879
5.13761
5.10379
5.06741
5.0286
4.98747
4.94418
4.89885
4.85164
4.8027
4.75217
4.70023
4.64703
4.59272
4.53747
4.48144
4.42479
4.36768
4.31027
4.25273
4.19521
4.13789
4.08091
4.02444
3.96865
3.91369
3.85972
3.80689
3.75536
3.70531
3.6569
3.6103
3.56566
3.52316
3.48295
3.4452
3.40999
3.37747
3.34691
3.31818
0.0553838
0.091255
0.114596
0.131423
0.145223
0.157377
0.168561
0.179156
0.189411
0.199497
0.209545
0.219653
0.229902
0.240353
0.25106
0.262066
0.273407
0.285117
0.297224
0.309753
0.322713
0.336129
0.350023
0.364419
0.379339
0.394804
0.410834
0.427452
0.444678
0.462535
0.481046
0.500234
0.520122
0.540734
0.562092
0.584222
0.607147
0.63089
0.655468
0.680929
0.70731
0.734644
0.762965
0.792304
0.822696
0.854172
0.886765
0.920507
0.95543
0.991567
1.02895
1.0676
1.10756
1.14884
1.19148
1.23549
1.2809
1.32772
1.37597
1.42567
1.47682
1.52943
1.5835
1.63902
1.69599
1.7544
1.81424
1.87547
1.93808
2.00203
2.0673
2.13383
2.20159
2.27052
2.34058
2.4117
2.48382
2.55688
2.6308
2.70551
2.78094
2.85699
2.9336
3.01066
3.08809
3.16579
3.24368
3.32166
3.39962
3.47747
3.55512
3.63246
3.70939
3.78581
3.86163
3.93674
4.01105
4.08446
4.15689
4.22823
4.2984
4.36732
4.43489
4.50105
4.5657
4.62876
4.69017
4.74985
4.80772
4.86372
4.91779
4.96985
5.01985
5.06773
5.11343
5.15688
5.19802
5.2368
5.27315
5.30701
5.33831
5.367
5.393
5.41627
5.43673
5.45434
5.46905
5.48079
5.48952
5.49523
5.49789
5.4974
5.4936
5.48613
5.47544
5.46153
5.44442
5.42414
5.40074
5.37427
5.34479
5.31237
5.2771
5.23907
5.1984
5.15521
5.10962
5.06177
5.01181
4.9599
4.90618
4.85082
4.79397
4.7358
4.67648
4.61617
4.55505
4.49329
4.43107
4.36856
4.30593
4.24338
4.1811
4.11925
4.05805
3.99768
3.93832
3.88019
3.82349
3.76841
3.71518
3.664
3.61508
3.56861
3.52476
3.48367
3.44552
3.41045
3.37778
3.34772
0.0565494
0.0911728
0.114473
0.131346
0.145202
0.157417
0.168674
0.179341
0.189663
0.199809
0.209905
0.220045
0.230305
0.240748
0.251425
0.26238
0.273649
0.285269
0.297271
0.30969
0.322527
0.335811
0.349571
0.363831
0.378618
0.393956
0.409871
0.426387
0.443531
0.46133
0.47981
0.498999
0.518926
0.53962
0.561108
0.583422
0.606591
0.630652
0.655609
0.681537
0.708473
0.736458
0.765531
0.795734
0.827105
0.859677
0.893485
0.928563
0.964946
1.00267
1.04177
1.08228
1.12422
1.16761
1.21249
1.25887
1.30676
1.35619
1.40717
1.4597
1.51378
1.56942
1.62661
1.68534
1.74558
1.80733
1.87056
1.93523
2.00131
2.06876
2.13753
2.20759
2.27886
2.3513
2.42484
2.49941
2.57495
2.65138
2.72862
2.80658
2.88519
2.96436
3.044
3.124
3.20429
3.28475
3.3653
3.44583
3.52624
3.60643
3.68629
3.76573
3.84465
3.92294
4.0005
4.07724
4.15306
4.22786
4.30156
4.37405
4.44525
4.51509
4.58347
4.65032
4.71557
4.77914
4.84095
4.90095
4.95905
5.01521
5.06937
5.12148
5.17146
5.21929
5.2649
5.30824
5.34926
5.38791
5.42413
5.45787
5.48907
5.51768
5.54363
5.56686
5.58733
5.60498
5.61974
5.63156
5.6404
5.64623
5.64906
5.64869
5.64499
5.63744
5.62659
5.61243
5.59498
5.57426
5.55028
5.5231
5.49276
5.45933
5.42286
5.38346
5.34121
5.29623
5.24864
5.19858
5.1462
5.09163
5.03503
4.97657
4.9164
4.85469
4.79161
4.72735
4.66207
4.59597
4.52922
4.46203
4.39459
4.32709
4.25977
4.19281
4.12644
4.0609
3.99641
3.9332
3.87146
3.81144
3.75344
3.69772
3.64455
3.59418
3.54679
3.50271
3.46195
3.42464
3.39016
3.35908
0.0573839
0.0906663
0.113765
0.130583
0.144411
0.156608
0.167839
0.178484
0.188784
0.198908
0.208978
0.219086
0.229305
0.239696
0.250308
0.261184
0.272361
0.283873
0.295748
0.308011
0.320684
0.333804
0.347403
0.361512
0.376163
0.391388
0.407218
0.423688
0.440827
0.458671
0.477256
0.496622
0.516811
0.537845
0.559752
0.582571
0.606335
0.631071
0.656799
0.683614
0.71157
0.740711
0.77108
0.802717
0.835656
0.86994
0.905605
0.942688
0.981224
1.02125
1.06282
1.10594
1.15063
1.19691
1.24479
1.29429
1.34542
1.39818
1.45257
1.50859
1.56622
1.62547
1.68629
1.74868
1.8126
1.87802
1.9449
2.0132
2.08287
2.15385
2.2261
2.29956
2.37415
2.44982
2.52649
2.6041
2.68255
2.76178
2.8417
2.92222
3.00326
3.08472
3.16652
3.24855
3.33072
3.41293
3.49508
3.57708
3.65882
3.74019
3.82111
3.90147
3.98117
4.06011
4.1382
4.21533
4.29142
4.36638
4.44012
4.51254
4.58356
4.65312
4.72112
4.78751
4.85221
4.91515
4.97626
5.03549
5.09276
5.14806
5.20131
5.25249
5.30153
5.3484
5.39306
5.43546
5.47557
5.51334
5.54873
5.58169
5.61217
5.64011
5.66547
5.6882
5.70824
5.72554
5.74003
5.75166
5.76036
5.76614
5.76901
5.76871
5.76509
5.75747
5.74651
5.73219
5.71452
5.69349
5.66913
5.64145
5.61048
5.57628
5.53889
5.49839
5.45486
5.40841
5.35915
5.30722
5.25274
5.19586
5.13673
5.07552
5.01238
4.94749
4.88101
4.81313
4.74405
4.67394
4.60302
4.53149
4.45956
4.38744
4.31529
4.24342
4.17208
4.10153
4.03203
3.9639
3.89745
3.83301
3.77079
3.71108
3.65418
3.60039
3.54999
3.50307
3.45982
3.42043
3.3843
3.35248
0.0578209
0.0895587
0.112262
0.128898
0.142595
0.15468
0.165811
0.176363
0.186579
0.196623
0.206614
0.21664
0.226772
0.237069
0.247579
0.258346
0.269409
0.280804
0.292566
0.304731
0.31734
0.330427
0.344027
0.358177
0.372914
0.388278
0.404312
0.421066
0.438571
0.456862
0.475984
0.495982
0.516893
0.538689
0.561465
0.585286
0.610211
0.636308
0.663629
0.692227
0.722152
0.753452
0.786173
0.820352
0.856027
0.893232
0.931999
0.972355
1.01433
1.05793
1.1032
1.15012
1.19871
1.24898
1.30091
1.35451