/*--------------------------------*- C++ -*----------------------------------*\
| =========                 |                                                 |
| \\      /  F ield         | OpenFOAM: The Open Source CFD Toolbox           |
|  \\    /   O peration     | Version:  v2006                                 |
|   \\  /    A nd           | Website:  www.openfoam.com                      |
|    \\/     M anipulation  |                                                 |
\*---------------------------------------------------------------------------*/
FoamFile
{
    version     2.0;
    format      ascii;
    class       volScalarField;
    location    "200";
    object      nut;
}
// * * * * * * * * * * * * * * * * * * * * * * * * * * * * * * * * * * * * * //

dimensions      [0 2 -1 0 0 0 0];


internalField   nonuniform List<scalar> 
12225
(
2.70744e-05
3.55746e-05
4.0523e-05
4.31923e-05
4.44515e-05
4.49642e-05
4.49108e-05
4.48716e-05
4.45032e-05
4.41848e-05
4.38515e-05
4.35233e-05
4.32275e-05
4.29456e-05
4.27124e-05
4.24747e-05
4.23162e-05
4.20884e-05
0.000212993
8.46414e-05
5.59083e-05
4.40573e-05
3.83762e-05
3.53557e-05
3.38463e-05
3.30825e-05
3.28587e-05
3.28679e-05
3.32217e-05
3.35951e-05
3.4238e-05
3.47879e-05
3.55957e-05
3.62144e-05
3.71421e-05
3.76468e-05
0.000656975
0.000306545
0.000194002
0.000142115
0.00011322
9.45006e-05
8.20233e-05
7.33165e-05
6.68029e-05
6.19616e-05
5.80452e-05
5.51111e-05
5.25368e-05
5.07137e-05
4.88954e-05
4.78628e-05
4.63273e-05
4.53979e-05
0.000862999
0.000609449
0.000451595
0.00035088
0.000289281
0.000246514
0.000216674
0.000194305
0.000177762
0.000164296
0.000154049
0.000145069
0.000138204
0.00013173
0.000126898
0.000121886
0.000118155
0.000113796
0.000877433
0.000776402
0.000690831
0.000591968
0.000517302
0.00045811
0.000413472
0.00037724
0.000349672
0.000325972
0.000307905
0.000291308
0.000278929
0.000266599
0.000257908
0.000248184
0.000242306
0.000233337
0.000858412
0.00083529
0.000807272
0.000753114
0.000699375
0.000648256
0.00060483
0.00056587
0.000534207
0.000505367
0.000482499
0.00046073
0.000444092
0.000427091
0.000414987
0.000401103
0.000392727
0.000379959
0.000854258
0.000849542
0.00084071
0.000823039
0.000798596
0.000768469
0.000739179
0.000709555
0.000683359
0.000657728
0.000636211
0.000614804
0.000597712
0.000579797
0.000566554
0.000551174
0.000541585
0.000526667
0.000852389
0.000851592
0.000849792
0.000844527
0.000835945
0.00082452
0.000810177
0.000793465
0.000777243
0.000760016
0.000744562
0.000728293
0.000714573
0.00069977
0.000688192
0.000674724
0.000665671
0.000652161
0.000851903
0.00085148
0.000851079
0.000849881
0.000847545
0.000843617
0.000838592
0.000831272
0.000823647
0.000814991
0.000806299
0.000796552
0.000787799
0.00077807
0.000769858
0.000760468
0.000753311
0.000743498
0.000851815
0.000851374
0.000851074
0.000850609
0.000850035
0.000848809
0.000847331
0.000844858
0.000841998
0.000838305
0.000834503
0.000829863
0.000825424
0.000820273
0.000815575
0.000810263
0.000805606
0.000799753
0.000851799
0.000851357
0.000851021
0.000850624
0.000850325
0.000849824
0.000849338
0.000848518
0.000847605
0.000846261
0.000844873
0.000843009
0.000841201
0.000838883
0.00083682
0.000834103
0.000832046
0.000828847
0.000851792
0.000851359
0.000851001
0.000850611
0.000850306
0.000849938
0.000849631
0.00084921
0.000848815
0.000848234
0.000847676
0.000846876
0.000846139
0.000845093
0.000844214
0.000842916
0.000841977
0.000840426
0.000851787
0.000851362
0.000850989
0.000850608
0.00085028
0.000849936
0.000849645
0.000849319
0.000849041
0.000848698
0.000848399
0.000848002
0.00084766
0.00084718
0.000846787
0.000846212
0.000845772
0.000845102
0.000851783
0.000851364
0.00085098
0.000850605
0.000850263
0.000849926
0.000849622
0.000849316
0.000849043
0.000848759
0.000848507
0.000848233
0.000847991
0.000847715
0.000847473
0.000847186
0.000846937
0.000846636
0.000851781
0.000851364
0.000850974
0.0008506
0.000850251
0.000849916
0.000849603
0.0008493
0.000849018
0.000848744
0.000848489
0.000848238
0.000848005
0.000847773
0.000847557
0.000847341
0.000847137
0.000846933
0.00085178
0.000851363
0.00085097
0.000850596
0.000850243
0.000849907
0.000849589
0.000849286
0.000848999
0.000848724
0.000848464
0.000848214
0.000847977
0.000847749
0.000847532
0.000847323
0.000847124
0.000846932
0.000851779
0.000851362
0.000850967
0.000850592
0.000850236
0.000849899
0.000849579
0.000849274
0.000848984
0.000848707
0.000848444
0.000848192
0.000847952
0.000847722
0.000847503
0.000847292
0.000847091
0.000846898
0.000851779
0.000851362
0.000850966
0.00085059
0.000850233
0.000849894
0.000849572
0.000849266
0.000848974
0.000848696
0.00084843
0.000848177
0.000847935
0.000847703
0.000847482
0.00084727
0.000847066
0.000846872
0.000851779
0.000851362
0.000850965
0.000850589
0.000850232
0.000849892
0.00084957
0.000849263
0.00084897
0.000848691
0.000848425
0.00084817
0.000847927
0.000847694
0.000847472
0.000847258
0.000847054
0.000846859
0.000851779
0.000851363
0.000850966
0.000850591
0.000850234
0.000849895
0.000849573
0.000849266
0.000848974
0.000848695
0.000848428
0.000848174
0.00084793
0.000847697
0.000847473
0.000847259
0.000847052
0.000846855
0.000851779
0.000851364
0.000850968
0.000850595
0.000850238
0.000849902
0.000849579
0.000849274
0.000848979
0.0008487
0.000848427
0.000848168
0.000847911
0.000847667
0.00084742
0.000847188
0.000846947
0.000846723
0.000851778
0.000851368
0.000850969
0.000850603
0.000850243
0.000849911
0.000849573
0.000849254
0.000848916
0.000848587
0.000848223
0.000847865
0.000847456
0.00084706
0.000846596
0.00084616
0.000845637
0.00084517
0.000851779
0.000851382
0.000850972
0.000850624
0.000850209
0.000849789
0.000849234
0.000848616
0.000847803
0.000846896
0.000845768
0.00084456
0.000843125
0.000841663
0.000839958
0.000838331
0.000836384
0.000834696
0.000851855
0.000851468
0.000850931
0.000850395
0.000849126
0.000847458
0.000844947
0.00084194
0.000838072
0.000833847
0.000828959
0.000823928
0.000818451
0.000812995
0.000807274
0.000801722
0.000795836
0.000790767
0.000852785
0.000851382
0.000849188
0.000845095
0.000836885
0.000827817
0.000815748
0.000802822
0.000788372
0.000774367
0.00075966
0.000746074
0.000732114
0.000719677
0.000706812
0.000695833
0.000684076
0.000674682
0.000858211
0.000842301
0.000828961
0.000803013
0.000769258
0.000735474
0.000700802
0.000669703
0.000639496
0.00061359
0.000588608
0.000567739
0.000547308
0.00053065
0.000513856
0.000500597
0.000486553
0.000476051
0.000864338
0.000785615
0.000712709
0.000628299
0.000558282
0.00050308
0.000455745
0.000418865
0.000386621
0.000361589
0.000338759
0.000321221
0.000304408
0.000291763
0.000278902
0.000269538
0.000259358
0.000252291
0.000775957
0.000540064
0.00039794
0.000312963
0.000258156
0.000219633
0.000190504
0.000169563
0.00015255
0.00013999
0.000129092
0.000121014
0.000113524
0.000108072
0.00010263
9.88068e-05
9.46825e-05
9.19093e-05
0.000323582
0.000164841
0.000111417
8.60759e-05
7.08264e-05
6.13545e-05
5.50183e-05
5.08855e-05
4.79531e-05
4.60097e-05
4.45905e-05
4.36882e-05
4.30395e-05
4.26951e-05
4.24555e-05
4.24397e-05
4.24365e-05
4.26233e-05
3.26574e-05
3.90519e-05
4.3892e-05
4.69716e-05
4.93654e-05
5.11698e-05
5.25343e-05
5.34594e-05
5.4114e-05
5.44632e-05
5.46905e-05
5.46971e-05
5.4654e-05
5.45496e-05
5.43767e-05
5.41693e-05
5.39442e-05
5.37076e-05
3.86145e-06
1.05588e-05
1.25399e-05
1.40368e-05
1.51426e-05
1.59593e-05
1.65972e-05
1.71601e-05
1.76542e-05
1.81082e-05
1.85488e-05
1.89982e-05
1.94804e-05
2.00382e-05
2.07006e-05
2.14314e-05
2.2197e-05
2.29871e-05
2.38008e-05
2.46412e-05
2.55102e-05
2.64099e-05
2.73393e-05
2.82979e-05
2.92829e-05
3.02936e-05
3.13281e-05
3.23813e-05
3.34434e-05
3.45124e-05
3.55843e-05
3.66587e-05
3.77328e-05
3.88066e-05
3.98779e-05
4.09472e-05
4.2013e-05
4.30776e-05
4.41427e-05
4.52132e-05
4.62938e-05
4.73933e-05
4.85073e-05
4.96137e-05
5.07194e-05
5.18236e-05
5.29261e-05
5.40281e-05
5.51289e-05
5.62294e-05
5.7329e-05
5.84287e-05
5.95276e-05
6.06267e-05
6.17249e-05
6.28234e-05
6.39208e-05
6.50183e-05
6.61145e-05
6.72103e-05
6.83044e-05
6.93977e-05
7.04887e-05
7.15783e-05
7.2665e-05
7.37496e-05
7.48304e-05
7.59082e-05
7.69814e-05
7.80507e-05
7.91145e-05
8.01734e-05
8.12257e-05
8.22719e-05
8.33106e-05
8.4342e-05
8.53646e-05
8.63789e-05
8.73832e-05
8.8378e-05
8.93616e-05
9.03344e-05
9.12947e-05
9.2243e-05
9.31775e-05
9.40984e-05
9.50042e-05
9.58949e-05
9.6769e-05
9.76262e-05
9.84652e-05
9.92846e-05
0.000100083
0.00010086
0.000101612
0.00010234
0.000103042
0.000103718
0.000104372
0.00010501
0.000105622
0.000106211
0.000106776
0.000107315
0.000107829
0.000108317
0.000108778
0.000109211
0.000109616
0.000109993
0.00011034
0.000110657
0.000110944
0.000111199
0.000111422
0.000111614
0.000111772
0.000111897
0.000111988
0.000112046
0.000112069
0.000112058
0.000112013
0.000111936
0.000111831
0.000111662
0.000111477
0.000111245
0.000110988
0.000110708
0.000110381
0.000110025
0.000109634
0.000109211
0.000108757
0.000108272
0.000107758
0.000107215
0.000106644
0.000106046
0.000105426
0.000104783
0.000104121
0.00010344
0.000102744
0.000102034
0.000101312
0.00010058
9.9842e-05
9.90988e-05
9.83522e-05
9.76046e-05
9.68588e-05
9.61171e-05
9.53817e-05
9.46553e-05
9.39401e-05
9.32383e-05
9.25521e-05
9.18836e-05
9.12347e-05
9.06065e-05
9.00017e-05
8.94226e-05
8.88688e-05
8.83439e-05
8.7877e-05
8.78118e-05
8.775e-05
8.75137e-05
8.73205e-05
8.71483e-05
8.70075e-05
8.68944e-05
8.68255e-05
8.67399e-05
8.66604e-05
8.65411e-05
8.62733e-05
8.49754e-05
6.08621e-06
2.93623e-05
6.27049e-05
8.85575e-05
0.000105902
0.000116918
0.000123459
0.000127188
0.000129831
0.000132225
0.000134675
0.000137195
0.000139672
0.00014196
0.000144043
0.000146034
0.000148022
0.000150071
0.000152238
0.00015458
0.000157146
0.000159982
0.000163118
0.000166574
0.000170359
0.000174476
0.000178925
0.000183718
0.000188834
0.000194222
0.000199858
0.000205733
0.000211857
0.00021823
0.000224832
0.000231646
0.000238629
0.00024571
0.000252863
0.000260067
0.000267307
0.000274587
0.000281945
0.000289358
0.000296844
0.000304398
0.000312026
0.000319728
0.000327507
0.000335363
0.000343302
0.000351323
0.00035943
0.000367625
0.000375911
0.000384289
0.000392763
0.000401334
0.000410003
0.000418773
0.000427645
0.000436618
0.000445695
0.000454876
0.000464161
0.000473549
0.00048304
0.000492633
0.000502327
0.00051212
0.000522011
0.000531996
0.000542075
0.000552243
0.000562498
0.000572837
0.000583255
0.000593747
0.000604312
0.000614944
0.00062564
0.000636394
0.000647203
0.000658062
0.000668966
0.000679911
0.000690892
0.000701905
0.000712949
0.000724017
0.000735108
0.00074621
0.000757312
0.000768392
0.000779415
0.000790315
0.00080098
0.000811223
0.000820732
0.000830022
0.000839205
0.000848272
0.000857213
0.000866021
0.000874684
0.000883192
0.000891534
0.000899698
0.000907673
0.000915447
0.000923008
0.000930343
0.000937441
0.000944287
0.00095087
0.000957178
0.000963197
0.000968917
0.000974326
0.000979413
0.000984166
0.000988579
0.000992645
0.000996366
0.000999756
0.00100287
0.00100552
0.00100748
0.00100921
0.00101087
0.00101198
0.00101271
0.00101305
0.00101302
0.00101263
0.00101187
0.00101077
0.00100932
0.00100756
0.00100548
0.0010031
0.00100044
0.000997514
0.000994353
0.000990973
0.000987395
0.000983643
0.000979741
0.000975713
0.000971582
0.000967374
0.000963115
0.00095883
0.000954546
0.000950288
0.000946084
0.000941959
0.000937935
0.000934036
0.000930285
0.000926699
0.000923294
0.000920083
0.000917078
0.000914276
0.000911675
0.000909244
0.000906851
0.000902516
0.000897954
0.000893548
0.000889099
0.000884652
0.00088013
0.000875527
0.000870798
0.000865568
0.000859282
0.000850429
0.000826787
7.59623e-06
4.65273e-05
9.98582e-05
0.000144443
0.000177966
0.000202175
0.000219301
0.000231358
0.000240114
0.000246892
0.000252568
0.000257659
0.000262451
0.000267106
0.000271748
0.000276495
0.000281445
0.000286679
0.000292265
0.000298268
0.000304743
0.000311735
0.000319275
0.000327379
0.000336043
0.000345246
0.00035494
0.000365225
0.000376189
0.00038793
0.000400182
0.000412831
0.000425834
0.000439159
0.000452765
0.000466615
0.000480671
0.000494903
0.000509296
0.000523837
0.000538521
0.00055335
0.000568325
0.000583432
0.000598668
0.00061405
0.000629582
0.000645267
0.000661108
0.000677108
0.000693272
0.000709601
0.000726101
0.000742774
0.000759625
0.000776655
0.00079387
0.000811269
0.000828855
0.000846629
0.000864591
0.000882741
0.000901079
0.000919603
0.000938313
0.000957204
0.000976274
0.00099552
0.00101494
0.00103452
0.00105427
0.00107417
0.00109422
0.00111441
0.00113474
0.00115519
0.00117577
0.00119645
0.00121723
0.00123811
0.00125906
0.00128009
0.00130118
0.00132232
0.0013435
0.00136471
0.00138594
0.00140717
0.00142839
0.00144959
0.00147075
0.00149184
0.00151283
0.00153369
0.00155434
0.00157472
0.00159473
0.00161429
0.00163337
0.0016522
0.0016708
0.00168915
0.00170723
0.00172503
0.00174253
0.00175969
0.0017765
0.00179294
0.00180899
0.00182461
0.00183979
0.0018545
0.00186872
0.00188242
0.00189558
0.00190817
0.00192017
0.00193156
0.00194231
0.0019524
0.00196181
0.00197053
0.00197854
0.00198583
0.0019924
0.00199837
0.00200383
0.00200776
0.00201094
0.00201393
0.00201597
0.0020172
0.00201765
0.00201734
0.00201628
0.00201449
0.00201198
0.00200878
0.00200491
0.00200041
0.0019953
0.00198961
0.0019834
0.0019767
0.00196954
0.00196199
0.00195407
0.00194585
0.00193736
0.00192867
0.00191981
0.00191084
0.00190182
0.00189279
0.00188381
0.00187492
0.00186617
0.00185762
0.00184929
0.00184123
0.00183348
0.00182605
0.00181898
0.00181226
0.0018059
0.00179987
0.00179408
0.00178819
0.00178082
0.00177318
0.00176551
0.00175774
0.00174992
0.00174194
0.00173371
0.00172513
0.00171568
0.00170427
0.00168747
0.00164821
8.61631e-06
6.28571e-05
0.00013195
0.000189656
0.000234436
0.000267904
0.00029259
0.00031081
0.000324525
0.000335294
0.000344282
0.000352307
0.000359917
0.000367468
0.000375194
0.000383256
0.000391766
0.000400809
0.00041045
0.000420744
0.000431735
0.000443456
0.000455928
0.000469164
0.000483171
0.000497958
0.000513549
0.000529818
0.000546622
0.000563788
0.000581381
0.000599411
0.000617848
0.000636652
0.000655781
0.000675195
0.000694848
0.00071472
0.000734828
0.000755171
0.000775749
0.000796574
0.00081767
0.000839086
0.000860701
0.000882524
0.000904557
0.000926806
0.000949274
0.000971965
0.000994884
0.00101803
0.00104142
0.00106504
0.0010889
0.001113
0.00113736
0.00116197
0.00118683
0.00121195
0.00123731
0.00126293
0.00128879
0.0013149
0.00134125
0.00136784
0.00139465
0.00142169
0.00144895
0.00147641
0.00150408
0.00153193
0.00155997
0.00158818
0.00161654
0.00164505
0.0016737
0.00170247
0.00173134
0.00176031
0.00178935
0.00181846
0.00184762
0.00187681
0.00190601
0.00193521
0.00196438
0.00199351
0.00202259
0.00205157
0.00208044
0.00210916
0.00213769
0.00216599
0.00219401
0.00222169
0.00224896
0.00227578
0.00230222
0.00232832
0.0023541
0.00237953
0.00240459
0.00242924
0.00245347
0.00247723
0.00250051
0.00252328
0.0025455
0.00256713
0.00258817
0.00260855
0.00262827
0.00264728
0.00266555
0.00268305
0.00269974
0.00271561
0.0027306
0.0027447
0.00275788
0.00277012
0.00278139
0.00279167
0.00280096
0.00280936
0.00281709
0.00282313
0.00282779
0.00283203
0.00283507
0.00283701
0.00283786
0.00283764
0.00283636
0.00283406
0.00283075
0.00282646
0.00282123
0.0028151
0.00280811
0.00280031
0.00279174
0.00278247
0.00277255
0.00276204
0.00275101
0.00273952
0.00272765
0.00271545
0.002703
0.00269037
0.00267763
0.00266486
0.00265213
0.0026395
0.00262705
0.00261483
0.00260291
0.00259133
0.00258015
0.0025694
0.0025591
0.00254928
0.00253993
0.00253101
0.00252244
0.00251391
0.00250466
0.00249518
0.00248563
0.00247598
0.00246645
0.00245678
0.00244682
0.00243639
0.00242496
0.00241128
0.00239101
0.00234916
9.3417e-06
7.68724e-05
0.000159723
0.000228575
0.000282845
0.000324318
0.000355725
0.000379608
0.000398107
0.000412959
0.000425514
0.000436781
0.000447477
0.000458093
0.000468957
0.000480283
0.000492213
0.000504838
0.00051822
0.000532401
0.000547408
0.000563253
0.000579938
0.000597453
0.000615776
0.000634875
0.000654702
0.000675178
0.000696227
0.000717785
0.000739833
0.000762348
0.000785299
0.000808655
0.000832386
0.000856473
0.000880907
0.000905672
0.000930727
0.000956057
0.000981653
0.0010075
0.00103359
0.00105988
0.00108641
0.00111321
0.00114026
0.00116759
0.00119519
0.00122306
0.00125122
0.00127965
0.00130837
0.00133738
0.00136665
0.00139622
0.00142609
0.00145626
0.00148672
0.00151749
0.00154854
0.00157988
0.00161151
0.00164342
0.00167559
0.00170804
0.00174074
0.00177369
0.00180687
0.00184028
0.0018739
0.00190773
0.00194174
0.00197593
0.00201027
0.00204476
0.00207937
0.0021141
0.00214891
0.00218381
0.00221875
0.00225373
0.00228873
0.00232373
0.0023587
0.00239363
0.00242849
0.00246325
0.00249789
0.00253239
0.00256671
0.00260082
0.00263468
0.00266826
0.00270152
0.00273442
0.00276695
0.00279908
0.00283083
0.0028622
0.00289317
0.00292373
0.00295384
0.00298347
0.00301259
0.00304118
0.00306919
0.0030966
0.00312337
0.00314947
0.00317486
0.0031995
0.00322337
0.00324641
0.00326859
0.00328989
0.00331025
0.00332964
0.00334802
0.00336537
0.00338164
0.00339682
0.00341086
0.00342375
0.00343547
0.00344603
0.0034558
0.00346398
0.0034704
0.00347595
0.00348024
0.00348321
0.00348487
0.00348524
0.00348432
0.00348215
0.00347875
0.00347416
0.00346842
0.00346156
0.00345364
0.00344471
0.00343483
0.00342406
0.00341248
0.00340015
0.00338714
0.00337355
0.00335944
0.00334489
0.00333001
0.00331486
0.00329955
0.00328415
0.00326875
0.00325345
0.00323831
0.00322342
0.00320886
0.00319468
0.00318095
0.00316772
0.00315502
0.00314288
0.0031313
0.00312026
0.00310969
0.00309938
0.00308892
0.00307841
0.00306792
0.00305735
0.00304688
0.00303632
0.00302554
0.00301432
0.00300219
0.00298794
0.00296766
0.00292903
9.8852e-06
8.88924e-05
0.000183377
0.000262168
0.000324913
0.000373865
0.000411733
0.0004412
0.000464535
0.000483607
0.0004999
0.000514555
0.000528415
0.000542079
0.000555957
0.000570321
0.000585345
0.000601138
0.000617764
0.000635257
0.000653631
0.000672884
0.000693001
0.000713956
0.000735714
0.000758231
0.000781455
0.000805328
0.000829798
0.000854819
0.000880356
0.00090638
0.000932859
0.000959764
0.00098707
0.00101475
0.0010428
0.00107118
0.00109988
0.00112888
0.00115818
0.00118776
0.00121761
0.00124774
0.00127815
0.00130886
0.00133986
0.00137116
0.00140276
0.00143467
0.00146689
0.00149943
0.00153228
0.00156545
0.00159896
0.00163279
0.00166693
0.00170139
0.00173615
0.00177122
0.00180659
0.00184225
0.00187821
0.00191444
0.00195094
0.00198771
0.00202472
0.00206198
0.00209947
0.00213717
0.00217507
0.00221317
0.00225143
0.00228985
0.00232841
0.00236709
0.00240588
0.00244475
0.0024837
0.00252268
0.0025617
0.00260073
0.00263974
0.00267872
0.00271764
0.00275648
0.00279522
0.00283383
0.00287228
0.00291056
0.00294862
0.00298645
0.00302402
0.00306128
0.00309822
0.00313481
0.00317104
0.00320689
0.00324235
0.00327739
0.00331201
0.00334617
0.00337985
0.00341302
0.00344564
0.00347769
0.00350912
0.00353992
0.00357003
0.00359943
0.00362808
0.00365594
0.00368297
0.00370913
0.00373438
0.00375868
0.00378199
0.00380427
0.00382547
0.00384556
0.0038645
0.00388225
0.00389879
0.00391407
0.00392808
0.00394077
0.00395255
0.00396282
0.00397123
0.00397833
0.00398416
0.00398852
0.0039914
0.00399281
0.00399277
0.00399131
0.00398845
0.00398422
0.00397866
0.00397182
0.00396375
0.0039545
0.00394414
0.00393273
0.00392035
0.00390707
0.00389298
0.00387816
0.00386269
0.00384668
0.00383022
0.0038134
0.00379633
0.0037791
0.00376181
0.00374457
0.00372746
0.00371058
0.00369401
0.00367784
0.00366213
0.00364695
0.00363235
0.00361836
0.00360501
0.00359228
0.00358015
0.00356846
0.003557
0.00354574
0.00353466
0.00352373
0.00351296
0.00350224
0.00349144
0.00348037
0.00346863
0.00345512
0.00343662
0.00340421
1.05224e-05
9.67862e-05
0.000201357
0.000289662
0.000360622
0.000416967
0.000461296
0.000496418
0.000524711
0.000548144
0.000568304
0.000586432
0.000603471
0.000620108
0.000636828
0.000653962
0.000671723
0.000690245
0.000709602
0.000729834
0.000750949
0.00077294
0.000795787
0.000819457
0.000843911
0.000869106
0.000894993
0.000921525
0.000948658
0.000976351
0.00100457
0.00103328
0.00106245
0.00109206
0.00112209
0.0011525
0.00118328
0.00121441
0.00124587
0.00127766
0.00130976
0.00134216
0.00137487
0.00140787
0.00144119
0.00147481
0.00150874
0.00154299
0.00157756
0.00161245
0.00164766
0.00168319
0.00171905
0.00175523
0.00179175
0.00182858
0.00186573
0.00190319
0.00194096
0.00197903
0.00201739
0.00205605
0.00209499
0.0021342
0.00217367
0.00221339
0.00225336
0.00229355
0.00233397
0.00237458
0.00241538
0.00245635
0.00249748
0.00253875
0.00258014
0.00262164
0.00266322
0.00270488
0.00274658
0.00278831
0.00283005
0.00287178
0.00291348
0.00295513
0.0029967
0.00303817
0.00307952
0.00312072
0.00316175
0.0032026
0.00324322
0.0032836
0.00332371
0.00336352
0.00340302
0.00344218
0.00348098
0.00351941
0.00355744
0.00359506
0.00363225
0.00366897
0.00370521
0.00374093
0.00377611
0.0038107
0.00384469
0.00387803
0.0039107
0.00394265
0.00397385
0.00400426
0.00403383
0.00406254
0.00409033
0.00411717
0.004143
0.00416779
0.00419149
0.00421406
0.00423545
0.00425562
0.00427454
0.00429216
0.00430844
0.00432335
0.00433722
0.0043496
0.00436021
0.00436917
0.00437682
0.0043829
0.00438737
0.00439023
0.00439151
0.00439121
0.00438938
0.00438604
0.00438122
0.00437497
0.00436733
0.00435836
0.00434812
0.00433668
0.00432412
0.00431051
0.00429593
0.00428048
0.00426426
0.00424735
0.00422987
0.00421192
0.0041936
0.00417503
0.00415632
0.00413757
0.00411889
0.00410039
0.00408216
0.0040643
0.0040469
0.00403002
0.00401374
0.00399811
0.00398317
0.00396894
0.00395539
0.00394247
0.00393004
0.00391805
0.00390646
0.00389524
0.00388435
0.00387372
0.00386324
0.00385277
0.00384197
0.00382992
0.00381403
0.003788
1.12756e-05
0.000100941
0.000213867
0.00031114
0.000390069
0.000453722
0.000504508
0.000545333
0.000578663
0.000606547
0.000630651
0.000652293
0.000672492
0.000692011
0.000711402
0.00073105
0.000751215
0.00077206
0.000793684
0.000816136
0.000839435
0.000863575
0.000888537
0.000914292
0.000940804
0.000968032
0.000995932
0.00102446
0.00105358
0.00108326
0.00111345
0.00114413
0.00117528
0.00120685
0.00123885
0.00127123
0.00130398
0.0013371
0.00137055
0.00140433
0.00143843
0.00147285
0.00150757
0.0015426
0.00157794
0.00161359
0.00164956
0.00168584
0.00172243
0.00175934
0.00179657
0.00183412
0.00187198
0.00191016
0.00194866
0.00198746
0.00202657
0.00206597
0.00210568
0.00214567
0.00218595
0.0022265
0.00226731
0.00230839
0.00234971
0.00239128
0.00243306
0.00247507
0.00251727
0.00255966
0.00260223
0.00264496
0.00268783
0.00273083
0.00277394
0.00281715
0.00286044
0.00290379
0.00294717
0.00299059
0.003034
0.0030774
0.00312076
0.00316407
0.0032073
0.00325043
0.00329344
0.00333631
0.00337901
0.00342153
0.00346384
0.00350591
0.00354774
0.00358928
0.00363053
0.00367146
0.00371206
0.0037523
0.00379216
0.00383163
0.00387068
0.00390929
0.00394742
0.00398507
0.00402219
0.00405875
0.00409474
0.00413011
0.00416482
0.00419886
0.00423217
0.00426473
0.00429649
0.00432741
0.00435744
0.00438655
0.00441469
0.0044418
0.00446785
0.00449278
0.00451654
0.0045391
0.00456039
0.00458039
0.00459903
0.00461627
0.00463239
0.004647
0.00465996
0.00467111
0.00468087
0.00468898
0.00469537
0.00470003
0.00470299
0.00470426
0.00470386
0.00470182
0.00469817
0.00469294
0.00468618
0.00467794
0.00466827
0.00465724
0.00464492
0.0046314
0.00461676
0.00460109
0.00458449
0.00456705
0.0045489
0.00453013
0.00451087
0.00449123
0.00447132
0.00445128
0.00443121
0.00441124
0.00439148
0.00437202
0.00435299
0.00433446
0.00431654
0.00429928
0.00428275
0.00426698
0.00425201
0.00423781
0.00422431
0.0042115
0.00419932
0.00418775
0.00417676
0.00416629
0.00415629
0.00414663
0.00413707
0.00412685
0.00411393
0.00409379
1.19309e-05
0.000103247
0.000222537
0.000327565
0.000413804
0.00048438
0.000541429
0.000587869
0.000626208
0.000658545
0.000686595
0.000711734
0.00073504
0.000757333
0.000779225
0.000801154
0.000823423
0.000846235
0.000869715
0.000893933
0.000918921
0.000944686
0.000971217
0.000998499
0.0010265
0.00105518
0.00108451
0.00111444
0.00114493
0.00117596
0.00120749
0.00123949
0.00127194
0.00130481
0.00133809
0.00137175
0.00140578
0.00144017
0.0014749
0.00150995
0.00154531
0.00158098
0.00161694
0.00165319
0.00168975
0.0017266
0.00176374
0.00180119
0.00183894
0.00187699
0.00191534
0.00195399
0.00199294
0.00203218
0.00207172
0.00211155
0.00215167
0.00219207
0.00223274
0.00227369
0.00231491
0.00235638
0.00239811
0.00244008
0.00248229
0.00252472
0.00256738
0.00261024
0.00265329
0.00269653
0.00273995
0.00278352
0.00282723
0.00287108
0.00291505
0.00295911
0.00300326
0.00304748
0.00309175
0.00313606
0.00318038
0.0032247
0.003269
0.00331326
0.00335746
0.00340158
0.0034456
0.0034895
0.00353326
0.00357686
0.00362027
0.00366349
0.00370647
0.00374922
0.0037917
0.00383389
0.00387578
0.00391735
0.00395857
0.00399943
0.00403991
0.00407997
0.00411961
0.00415878
0.00419748
0.00423566
0.00427331
0.00431039
0.00434686
0.00438271
0.00441789
0.00445236
0.0044861
0.00451904
0.00455117
0.00458241
0.00461274
0.0046421
0.00467044
0.00469771
0.00472385
0.00474882
0.00477255
0.00479501
0.00481613
0.00483585
0.00485439
0.0048714
0.00488685
0.00490051
0.00491266
0.00492309
0.00493171
0.00493848
0.00494344
0.0049466
0.00494798
0.0049476
0.00494547
0.00494162
0.0049361
0.00492893
0.00492017
0.00490989
0.00489816
0.00488504
0.00487064
0.00485502
0.00483831
0.00482059
0.00480197
0.00478258
0.00476254
0.00474196
0.00472098
0.00469972
0.00467832
0.0046569
0.0046356
0.00461452
0.00459381
0.00457356
0.00455388
0.00453488
0.00451664
0.00449922
0.00448268
0.00446705
0.00445232
0.0044385
0.00442558
0.00441353
0.00440236
0.00439203
0.00438251
0.00437374
0.00436554
0.00435732
0.00434745
0.00433284
1.24817e-05
0.000104245
0.000228135
0.000339567
0.000432411
0.000509166
0.000572146
0.000623971
0.000667165
0.000703842
0.000735749
0.000764294
0.000790596
0.000815525
0.000839737
0.000863717
0.000887813
0.000912264
0.000937232
0.000962809
0.000989041
0.00101594
0.00104351
0.0010718
0.00110078
0.00113039
0.00116059
0.00119136
0.00122265
0.00125444
0.0012867
0.0013194
0.00135252
0.00138603
0.00141993
0.00145419
0.00148881
0.00152377
0.00155907
0.00159473
0.00163065
0.00166684
0.00170328
0.00173999
0.00177696
0.0018142
0.00185171
0.00188949
0.00192755
0.00196587
0.00200448
0.00204336
0.00208251
0.00212194
0.00216163
0.0022016
0.00224184
0.00228234
0.0023231
0.00236413
0.00240541
0.00244694
0.00248872
0.00253074
0.00257299
0.00261548
0.00265819
0.00270112
0.00274425
0.00278758
0.0028311
0.0028748
0.00291866
0.00296268
0.00300684
0.00305113
0.00309554
0.00314004
0.00318463
0.00322928
0.00327399
0.00331873
0.00336348
0.00340823
0.00345296
0.00349765
0.00354228
0.00358682
0.00363127
0.00367559
0.00371977
0.00376379
0.00380763
0.00385126
0.00389467
0.00393783
0.00398073
0.00402335
0.00406567
0.00410766
0.00414931
0.0041906
0.0042315
0.00427199
0.00431205
0.00435165
0.00439077
0.00442938
0.00446745
0.00450496
0.00454186
0.00457812
0.00461372
0.0046486
0.00468272
0.00471605
0.00474852
0.0047801
0.00481073
0.00484034
0.0048689
0.00489633
0.00492259
0.00494761
0.00497133
0.0049937
0.00501482
0.00503442
0.0050525
0.00506893
0.00508373
0.00509679
0.00510792
0.00511708
0.00512433
0.00512968
0.00513315
0.00513473
0.00513444
0.00513228
0.00512829
0.0051225
0.00511496
0.00510571
0.00509483
0.00508238
0.00506845
0.00505312
0.0050365
0.00501867
0.00499976
0.00497989
0.00495917
0.00493774
0.00491574
0.00489329
0.00487056
0.00484767
0.00482476
0.00480199
0.00477949
0.00475739
0.00473583
0.00471492
0.00469479
0.00467553
0.00465724
0.00463999
0.00462382
0.00460879
0.00459491
0.00458222
0.00457072
0.00456043
0.00455134
0.00454343
0.00453661
0.00453038
0.00452351
0.0045139
1.29361e-05
0.000104222
0.000231181
0.000347713
0.000446267
0.000528488
0.000596834
0.000653645
0.000701393
0.000742174
0.000777735
0.0008095
0.000838615
0.000865981
0.000892295
0.000918075
0.000943701
0.000969443
0.000995556
0.00102213
0.00104922
0.00107683
0.00110493
0.00113364
0.00116295
0.00119283
0.00122327
0.00125422
0.00128566
0.00131757
0.00134993
0.0013827
0.00141588
0.00144945
0.00148337
0.00151764
0.00155224
0.00158716
0.00162241
0.00165802
0.00169378
0.00172974
0.00176591
0.00180229
0.00183889
0.00187569
0.00191273
0.00195
0.00198751
0.00202526
0.00206326
0.0021015
0.00214
0.00217874
0.00221774
0.002257
0.00229651
0.00233629
0.00237632
0.00241662
0.00245717
0.00249799
0.00253907
0.00258041
0.00262201
0.00266387
0.00270598
0.00274834
0.00279094
0.00283378
0.00287686
0.00292016
0.00296367
0.00300739
0.0030513
0.0030954
0.00313966
0.00318408
0.00322864
0.00327333
0.00331812
0.003363
0.00340795
0.00345296
0.00349799
0.00354304
0.00358808
0.00363309
0.00367805
0.00372294
0.00376774
0.00381242
0.00385696
0.00390134
0.00394555
0.00398956
0.00403335
0.0040769
0.00412019
0.0041632
0.00420592
0.00424832
0.00429037
0.00433207
0.0043734
0.00441432
0.00445481
0.00449486
0.00453443
0.0045735
0.00461205
0.00465003
0.00468742
0.00472418
0.00476026
0.00479562
0.00483023
0.00486401
0.00489693
0.00492892
0.00495993
0.00498989
0.00501873
0.0050464
0.00507284
0.00509798
0.00512182
0.0051442
0.00516513
0.00518451
0.00520221
0.00521817
0.00523209
0.00524387
0.00525367
0.00526149
0.00526733
0.00527116
0.00527299
0.00527281
0.00527065
0.00526652
0.00526046
0.00525252
0.00524275
0.00523121
0.00521798
0.00520315
0.00518681
0.00516905
0.00515
0.00512977
0.00510849
0.00508629
0.00506331
0.00503972
0.00501565
0.00499126
0.00496671
0.00494216
0.00491778
0.00489371
0.00487011
0.00484715
0.00482496
0.00480368
0.00478344
0.00476436
0.00474655
0.00473009
0.00471506
0.00470152
0.00468952
0.00467911
0.00467033
0.0046632
0.00465767
0.00465337
0.00464935
0.00464428
1.3303e-05
0.000103388
0.000232066
0.000352425
0.000455664
0.000542574
0.000615624
0.000676891
0.000728753
0.000773264
0.000812151
0.000846835
0.000878467
0.000907964
0.000936106
0.000963411
0.000990249
0.00101687
0.0010436
0.00107059
0.00109795
0.00112574
0.00115404
0.0011829
0.00121227
0.0012421
0.00127238
0.00130309
0.00133421
0.0013657
0.00139756
0.00142975
0.00146226
0.00149508
0.00152821
0.0015616
0.00159522
0.00162913
0.00166332
0.00169799
0.0017328
0.00176778