/*--------------------------------*- C++ -*----------------------------------*\
| =========                 |                                                 |
| \\      /  F ield         | OpenFOAM: The Open Source CFD Toolbox           |
|  \\    /   O peration     | Version:  v2006                                 |
|   \\  /    A nd           | Website:  www.openfoam.com                      |
|    \\/     M anipulation  |                                                 |
\*---------------------------------------------------------------------------*/
FoamFile
{
    version     2.0;
    format      ascii;
    class       volScalarField;
    location    "200";
    object      p;
}
// * * * * * * * * * * * * * * * * * * * * * * * * * * * * * * * * * * * * * //

dimensions      [0 2 -2 0 0 0 0];


internalField   nonuniform List<scalar> 
12225
(
-2.6383
-4.79553
-5.88815
-6.20192
-6.37876
-6.55756
-6.70569
-6.8174
-6.9091
-6.99213
-7.06958
-7.14252
-7.21262
-7.28189
-7.35285
-7.42497
-7.51286
-7.56686
-5.76854
-6.55621
-6.76113
-6.67318
-6.64818
-6.71251
-6.79566
-6.87003
-6.93958
-7.00891
-7.07761
-7.14477
-7.21093
-7.2773
-7.34558
-7.41704
-7.49654
-7.59966
-6.14855
-6.0825
-6.20198
-6.28907
-6.39748
-6.54002
-6.67489
-6.7854
-6.87947
-6.9652
-7.04505
-7.11989
-7.19127
-7.26096
-7.33099
-7.40257
-7.48051
-7.56355
-6.02124
-5.9338
-6.19305
-6.3852
-6.50774
-6.62904
-6.74269
-6.83713
-6.91835
-6.99362
-7.06526
-7.13369
-7.19992
-7.2652
-7.33088
-7.39768
-7.46676
-7.53276
-6.01281
-6.02736
-6.27438
-6.43942
-6.53241
-6.63091
-6.73321
-6.82372
-6.90384
-6.97899
-7.05095
-7.11986
-7.18639
-7.25148
-7.31606
-7.38031
-7.44381
-7.50276
-6.07386
-6.11892
-6.30544
-6.44547
-6.53569
-6.63185
-6.73246
-6.82293
-6.90329
-6.9782
-7.04956
-7.11763
-7.18301
-7.24647
-7.3086
-7.36927
-7.42765
-7.48086
-6.13647
-6.17871
-6.32276
-6.45313
-6.54726
-6.64107
-6.73715
-6.82486
-6.9035
-6.97681
-7.0466
-7.11317
-7.17694
-7.23848
-7.29807
-7.3554
-7.4095
-7.45807
-6.19198
-6.22917
-6.3467
-6.46757
-6.56116
-6.65034
-6.74089
-6.82539
-6.90222
-6.974
-7.0423
-7.10744
-7.16967
-7.22933
-7.28653
-7.34085
-7.3914
-7.43644
-6.24375
-6.27759
-6.37518
-6.48405
-6.57419
-6.65884
-6.74437
-6.82568
-6.90059
-6.97072
-7.03742
-7.10097
-7.16151
-7.2192
-7.27403
-7.32559
-7.37314
-7.41542
-6.29284
-6.32344
-6.40485
-6.50148
-6.58709
-6.66761
-6.74843
-6.8263
-6.89893
-6.96717
-7.03205
-7.09382
-7.15252
-7.20819
-7.26074
-7.3098
-7.35483
-7.39493
-6.33904
-6.36616
-6.4346
-6.51998
-6.60037
-6.67674
-6.75301
-6.82723
-6.89731
-6.96344
-7.02633
-7.08618
-7.14295
-7.19658
-7.24697
-7.29379
-7.33668
-7.37501
-6.37857
-6.4026
-6.46155
-6.53766
-6.61281
-6.68527
-6.75752
-6.82834
-6.89588
-6.95994
-7.0209
-7.07889
-7.13384
-7.18563
-7.23413
-7.27911
-7.32032
-7.35729
-6.4149
-6.43628
-6.48742
-6.5553
-6.62514
-6.69369
-6.76212
-6.82959
-6.89453
-6.95643
-7.01541
-7.07152
-7.12465
-7.17465
-7.22141
-7.26471
-7.30444
-7.34025
-6.45265
-6.47142
-6.5153
-6.57504
-6.63898
-6.70307
-6.76734
-6.83109
-6.89299
-6.95235
-7.00904
-7.06299
-7.11407
-7.16212
-7.20701
-7.24861
-7.28687
-7.32157
-6.49033
-6.50656
-6.54395
-6.59604
-6.65377
-6.71297
-6.77283
-6.83259
-6.89111
-6.94759
-7.00169
-7.05325
-7.1021
-7.14808
-7.19106
-7.23097
-7.2678
-7.30143
-6.52563
-6.53953
-6.5714
-6.61666
-6.66832
-6.7225
-6.77787
-6.83355
-6.88851
-6.94189
-6.99323
-7.04227
-7.08881
-7.13268
-7.17379
-7.21207
-7.24755
-7.28018
-6.55516
-6.56713
-6.5946
-6.63422
-6.6805
-6.72997
-6.78113
-6.83295
-6.88443
-6.93476
-6.98337
-7.02994
-7.07425
-7.11612
-7.15548
-7.19228
-7.22655
-7.2583
-6.57393
-6.58452
-6.60892
-6.64455
-6.68681
-6.73261
-6.78039
-6.82907
-6.87767
-6.9254
-6.97168
-7.01614
-7.05855
-7.09874
-7.13664
-7.17222
-7.20549
-7.2365
-6.57421
-6.58417
-6.60724
-6.64119
-6.68171
-6.72581
-6.77189
-6.81892
-6.86597
-6.91223
-6.95714
-7.00032
-7.04156
-7.08072
-7.11773
-7.15258
-7.18529
-7.21594
-6.54994
-6.56042
-6.5847
-6.62043
-6.66281
-6.70836
-6.75546
-6.80329
-6.85098
-6.89772
-6.94291
-6.98625
-7.02755
-7.06672
-7.10368
-7.13848
-7.17113
-7.20174
-6.51564
-6.52702
-6.55378
-6.59338
-6.63963
-6.68817
-6.73769
-6.7877
-6.83724
-6.88538
-6.93164
-6.97581
-7.0178
-7.05749
-7.0949
-7.13006
-7.16305
-7.19399
-6.47331
-6.4854
-6.51595
-6.56219
-6.61411
-6.66623
-6.71879
-6.77195
-6.82428
-6.87456
-6.92242
-6.96785
-7.0108
-7.05122
-7.08916
-7.1247
-7.15797
-7.18909
-6.42633
-6.43774
-6.4728
-6.5291
-6.5887
-6.64486
-6.70072
-6.75723
-6.8124
-6.86493
-6.91468
-6.96173
-7.00601
-7.04749
-7.08627
-7.12252
-7.15639
-7.18813
-6.37726
-6.38633
-6.42772
-6.49542
-6.56181
-6.62294
-6.68444
-6.74558
-6.80352
-6.85777
-6.90889
-6.95704
-7.0021
-7.04411
-7.08325
-7.11974
-7.15376
-7.18543
-6.3261
-6.32739
-6.39036
-6.4722
-6.53596
-6.5968
-6.66453
-6.73238
-6.79495
-6.85259
-6.90656
-6.957
-7.00375
-7.04693
-7.08688
-7.12393
-7.1584
-7.19078
-6.27982
-6.23136
-6.34726
-6.46893
-6.5317
-6.58454
-6.6494
-6.71632
-6.77826
-6.83594
-6.89065
-6.94214
-6.98998
-7.03424
-7.07523
-7.11329
-7.14862
-7.18137
-6.29691
-6.0989
-6.23222
-6.41048
-6.51594
-6.59675
-6.67643
-6.74895
-6.8122
-6.86957
-6.92299
-6.97247
-7.01786
-7.05954
-7.09795
-7.13353
-7.16677
-7.19871
-6.43779
-6.19034
-6.16694
-6.22224
-6.30528
-6.41392
-6.52533
-6.62316
-6.70804
-6.78453
-6.85426
-6.91711
-6.97334
-7.02378
-7.06924
-7.11037
-7.14798
-7.18337
-6.16578
-6.7965
-6.91523
-6.77534
-6.6877
-6.69507
-6.7373
-6.78224
-6.82785
-6.87606
-6.92507
-6.97241
-7.01679
-7.05811
-7.09644
-7.13164
-7.16407
-7.1951
-3.11133
-4.87842
-5.89173
-6.17327
-6.29977
-6.4425
-6.57244
-6.67313
-6.75538
-6.82857
-6.89477
-6.95386
-7.00641
-7.05335
-7.09537
-7.13267
-7.16539
-7.19197
-7.99311
-7.99291
-7.9933
-7.99446
-7.99609
-7.99793
-7.99987
-8.00191
-8.00406
-8.00632
-8.00873
-8.01132
-8.01415
-8.01726
-8.02068
-8.02444
-8.02859
-8.03317
-8.03822
-8.04378
-8.04991
-8.05666
-8.06406
-8.07219
-8.08108
-8.09078
-8.10133
-8.11276
-8.12511
-8.13839
-8.15262
-8.1678
-8.18392
-8.20096
-8.2189
-8.23772
-8.2574
-8.27795
-8.29933
-8.32152
-8.34442
-8.36794
-8.39199
-8.41654
-8.44154
-8.46696
-8.49273
-8.51883
-8.54518
-8.57175
-8.59847
-8.62528
-8.65212
-8.67891
-8.70557
-8.73203
-8.7582
-8.78399
-8.80928
-8.834
-8.85801
-8.8812
-8.90343
-8.92459
-8.94452
-8.96309
-8.98011
-8.99547
-9.00894
-9.02039
-9.0296
-9.03641
-9.0406
-9.04198
-9.04033
-9.03546
-9.02711
-9.01509
-8.99914
-8.97906
-8.95458
-8.9255
-8.89155
-8.85254
-8.80818
-8.75827
-8.70254
-8.64078
-8.57274
-8.49822
-8.41701
-8.32894
-8.23381
-8.13152
-8.02201
-7.9053
-7.78122
-7.64929
-7.50908
-7.36059
-7.20395
-7.03918
-6.86629
-6.68533
-6.49633
-6.29935
-6.0945
-5.88192
-5.66176
-5.43422
-5.19955
-4.95799
-4.70983
-4.45541
-4.19507
-3.92921
-3.65823
-3.38257
-3.10268
-2.81903
-2.53211
-2.24245
-1.95055
-1.65695
-1.36216
-1.0667
-0.771059
-0.475759
-0.18127
0.111945
0.403443
0.692784
0.979578
1.26344
1.54404
1.82104
2.09421
2.36331
2.62816
2.8886
3.14449
3.39576
3.64237
3.88436
4.12179
4.35475
4.58339
4.80788
5.02844
5.24532
5.4588
5.6692
5.87687
6.0822
6.28558
6.48745
6.68826
6.88848
7.0886
7.28912
7.49052
7.69331
7.89795
8.10492
8.31465
8.5275
8.74383
8.96409
9.18831
9.41605
9.64699
9.88109
10.1182
10.3579
10.5996
10.8427
11.0871
11.3321
11.5886
11.8454
-7.99289
-7.99294
-7.99345
-7.99455
-7.99587
-7.99716
-7.99835
-7.99949
-8.00068
-8.00203
-8.00364
-8.00553
-8.00773
-8.01021
-8.013
-8.01614
-8.01967
-8.02363
-8.02807
-8.03303
-8.03857
-8.04475
-8.05162
-8.05925
-8.06766
-8.07693
-8.08707
-8.09814
-8.11015
-8.12313
-8.13707
-8.15199
-8.16786
-8.18467
-8.20239
-8.22099
-8.24044
-8.26071
-8.28177
-8.30358
-8.32607
-8.34919
-8.37286
-8.39703
-8.42167
-8.44673
-8.47215
-8.4979
-8.52392
-8.55016
-8.57656
-8.60307
-8.62961
-8.65613
-8.68254
-8.70877
-8.73472
-8.76032
-8.78546
-8.81004
-8.83394
-8.85706
-8.87926
-8.90042
-8.92039
-8.93903
-8.95618
-8.97169
-8.98538
-8.99708
-9.0066
-9.01377
-9.01837
-9.02021
-9.01908
-9.01478
-9.00708
-8.99575
-8.98056
-8.96131
-8.93773
-8.9096
-8.87669
-8.83878
-8.79561
-8.74696
-8.69258
-8.63225
-8.56575
-8.49286
-8.41341
-8.32717
-8.23397
-8.13361
-8.02593
-7.91067
-7.78759
-7.65663
-7.51788
-7.37129
-7.21671
-7.05409
-6.88339
-6.70464
-6.51785
-6.3231
-6.12047
-5.9101
-5.69214
-5.46677
-5.23422
-4.99473
-4.74859
-4.49611
-4.23764
-3.97354
-3.70423
-3.43014
-3.1517
-2.86938
-2.58367
-2.29507
-2.00411
-1.71131
-1.41718
-1.12224
-0.826981
-0.531913
-0.237528
0.0557252
0.34739
0.637034
0.924251
1.20866
1.48992
1.7677
2.04174
2.3118
2.57768
2.83922
3.09626
3.34871
3.59654
3.83977
4.07843
4.31262
4.54246
4.76813
4.98981
5.20776
5.42223
5.63356
5.84206
6.04811
6.25211
6.45449
6.65567
6.85614
7.05637
7.25685
7.45807
7.66053
7.86469
8.07103
8.28005
8.49207
8.7074
8.92641
9.1491
9.37516
9.60444
9.83693
10.0725
10.3108
10.5514
10.7938
11.0385
11.2842
11.5444
11.7951
-7.98921
-7.99001
-7.99134
-7.99277
-7.99392
-7.99472
-7.99525
-7.99567
-7.99611
-7.9967
-7.99752
-7.99862
-8.00005
-8.00185
-8.00405
-8.00667
-8.00976
-8.01335
-8.01749
-8.02222
-8.0276
-8.03368
-8.0405
-8.0481
-8.05654
-8.06583
-8.07601
-8.0871
-8.0991
-8.11203
-8.12587
-8.14062
-8.15628
-8.17282
-8.19022
-8.20845
-8.22747
-8.24727
-8.2678
-8.28903
-8.31092
-8.3334
-8.35645
-8.38
-8.40402
-8.42846
-8.45328
-8.47844
-8.50388
-8.52955
-8.5554
-8.58137
-8.6074
-8.63342
-8.65935
-8.68513
-8.71066
-8.73586
-8.76063
-8.78487
-8.80848
-8.83133
-8.8533
-8.87427
-8.89409
-8.91263
-8.92973
-8.94524
-8.95898
-8.97078
-8.98046
-8.98785
-8.99273
-8.99492
-8.99421
-8.99039
-8.98324
-8.97254
-8.95807
-8.93959
-8.91688
-8.88971
-8.85783
-8.82103
-8.77906
-8.7317
-8.6787
-8.61984
-8.55489
-8.48366
-8.40594
-8.32154
-8.23027
-8.13194
-8.02635
-7.91328
-7.79247
-7.66385
-7.52743
-7.38319
-7.23105
-7.07092
-6.90278
-6.72661
-6.54244
-6.35032
-6.15034
-5.9426
-5.72727
-5.50451
-5.27453
-5.03757
-4.79391
-4.54385
-4.28771
-4.02587
-3.75872
-3.48667
-3.21016
-2.92964
-2.6456
-2.35853
-2.06896
-1.77738
-1.48434
-1.19034
-0.89588
-0.601429
-0.307508
-0.0145715
0.276924
0.566554
0.853899
1.13859
1.42025
1.69857
1.97326
2.24408
2.51083
2.7733
3.03135
3.28487
3.53382
3.77818
4.018
4.25334
4.48432
4.71108
4.93382
5.15274
5.36813
5.58025
5.78944
5.99606
6.20048
6.40311
6.60439
6.80477
7.00473
7.20472
7.40525
7.60683
7.80992
8.01497
8.22249
8.43292
8.64656
8.8637
9.08441
9.30854
9.53602
9.76682
10.0008
10.2378
10.4774
10.7194
10.9647
11.2114
11.4748
11.713
-7.98177
-7.98357
-7.98631
-7.98865
-7.99024
-7.99127
-7.99192
-7.99234
-7.99269
-7.99312
-7.99372
-7.99458
-7.99577
-7.99733
-7.99931
-8.00175
-8.0047
-8.0082
-8.01229
-8.01702
-8.02243
-8.02856
-8.03546
-8.04315
-8.05166
-8.06102
-8.07124
-8.08235
-8.09432
-8.10718
-8.1209
-8.13549
-8.15093
-8.16721
-8.1843
-8.20217
-8.22081
-8.24018
-8.26024
-8.28098
-8.30234
-8.32429
-8.3468
-8.36982
-8.39332
-8.41724
-8.44156
-8.46623
-8.49119
-8.51641
-8.54182
-8.56737
-8.593
-8.61865
-8.64423
-8.66969
-8.69493
-8.71986
-8.7444
-8.76844
-8.79188
-8.8146
-8.83647
-8.85738
-8.87719
-8.89575
-8.91291
-8.92851
-8.9424
-8.95439
-8.96432
-8.97199
-8.97721
-8.97979
-8.97952
-8.9762
-8.9696
-8.95951
-8.94571
-8.92796
-8.90604
-8.87971
-8.84875
-8.81291
-8.77198
-8.7257
-8.67385
-8.6162
-8.55252
-8.48261
-8.40627
-8.32328
-8.23346
-8.13662
-8.03256
-7.92107
-7.80198
-7.67517
-7.5406
-7.39823
-7.24796
-7.08975
-6.92355
-6.74934
-6.56715
-6.37702
-6.17903
-5.97328
-5.75991
-5.5391
-5.31104
-5.07597
-4.83414
-4.58587
-4.33146
-4.07127
-3.8057
-3.53514
-3.26003
-2.98081
-2.69797
-2.412
-2.1234
-1.8327
-1.5404
-1.24704
-0.953108
-0.659063
-0.365413
-0.0726386
0.21881
0.508507
0.796038
1.08102
1.36308
1.64191
1.9172
2.18871
2.45621
2.71951
2.97846
3.23293
3.48288
3.72827
3.96915
4.20555
4.43758
4.66538
4.88912
5.10901
5.3253
5.53826
5.74821
5.95548
6.16044
6.36349
6.56503
6.76552
6.96542
7.16518
7.36527
7.5662
7.76846
7.97249
8.17875
8.38763
8.59945
8.81453
9.03301
9.2549
9.48021
9.70893
9.94095
10.1761
10.4142
10.6549
10.8992
11.1448
11.4063
11.6307
-7.97192
-7.97484
-7.97942
-7.98312
-7.98557
-7.98722
-7.98835
-7.98913
-7.98975
-7.99037
-7.99112
-7.9921
-7.99339
-7.99507
-7.99717
-7.99976
-8.00288
-8.00657
-8.01087
-8.01582
-8.02147
-8.02784
-8.03497
-8.04287
-8.05158
-8.0611
-8.07145
-8.08264
-8.09467
-8.10753
-8.12122
-8.13572
-8.15103
-8.16712
-8.18398
-8.20159
-8.21993
-8.23896
-8.25866
-8.27901
-8.29998
-8.32152
-8.34361
-8.36622
-8.38931
-8.41284
-8.43677
-8.46107
-8.48567
-8.51055
-8.53563
-8.56088
-8.58623
-8.61161
-8.63696
-8.6622
-8.68724
-8.71201
-8.73641
-8.76034
-8.78369
-8.80635
-8.8282
-8.84912
-8.86896
-8.88758
-8.90485
-8.92059
-8.93465
-8.94685
-8.95702
-8.96497
-8.97051
-8.97345
-8.97358
-8.97069
-8.96457
-8.955
-8.94176
-8.92461
-8.90334
-8.8777
-8.84747
-8.81241
-8.77228
-8.72686
-8.6759
-8.61919
-8.55648
-8.48758
-8.41227
-8.33035
-8.24162
-8.14589
-8.04296
-7.93266
-7.81482
-7.68933
-7.55609
-7.41504
-7.2661
-7.10921
-6.94432
-6.77143
-6.59056
-6.40173
-6.20503
-6.00056
-5.78844
-5.56885
-5.34198
-5.10806
-4.86735
-4.62013
-4.36673
-4.1075
-3.84282
-3.57309
-3.29873
-3.02021
-2.73799
-2.45257
-2.16444
-1.87414
-1.58216
-1.28906
-0.995309
-0.701392
-0.407779
-0.114981
0.176565
0.466414
0.754174
1.03943
1.32184
1.60105
1.87679
2.14878
2.4168
2.68065
2.94015
3.19522
3.44577
3.69179
3.93327
4.17029
4.40292
4.63131
4.85559
5.076
5.29276
5.50615
5.71645
5.924
6.12917
6.33236
6.53393
6.73433
6.93401
7.13344
7.33308
7.5334
7.73487
7.93794
8.14305
8.35059
8.5609
8.77428
8.99091
9.21092
9.43438
9.6613
9.89162
10.1251
10.3617
10.601
10.8439
11.0871
11.3444
11.5563
-7.96172
-7.96566
-7.97208
-7.97726
-7.98075
-7.98322
-7.98502
-7.98638
-7.98748
-7.98852
-7.98964
-7.99096
-7.99257
-7.99456
-7.99698
-7.99989
-8.00334
-8.00737
-8.01202
-8.01732
-8.0233
-8.03
-8.03743
-8.04562
-8.05458
-8.06432
-8.07485
-8.08617
-8.09828
-8.11118
-8.12486
-8.13931
-8.15452
-8.17048
-8.18717
-8.20458
-8.22267
-8.24145
-8.26088
-8.28094
-8.30159
-8.32283
-8.34462
-8.36692
-8.3897
-8.41294
-8.43659
-8.4606
-8.48495
-8.50958
-8.53444
-8.55948
-8.58464
-8.60985
-8.63505
-8.66016
-8.68511
-8.7098
-8.73414
-8.75804
-8.78139
-8.80407
-8.82597
-8.84696
-8.8669
-8.88566
-8.90308
-8.919
-8.93327
-8.94571
-8.95615
-8.96439
-8.97026
-8.97355
-8.97406
-8.97158
-8.9659
-8.95679
-8.94404
-8.92742
-8.9067
-8.88164
-8.85202
-8.81759
-8.77813
-8.73339
-8.68314
-8.62716
-8.56522
-8.49709
-8.42258
-8.34148
-8.25357
-8.15867
-8.0566
-7.94717
-7.83023
-7.70566
-7.57335
-7.43321
-7.28517
-7.12916
-6.96515
-6.79312
-6.61307
-6.42506
-6.22915
-6.02544
-5.81406
-5.59517
-5.36896
-5.13566
-4.89552
-4.64884
-4.39593
-4.13714
-3.87284
-3.60344
-3.32938
-3.05108
-2.76905
-2.48376
-2.19573
-1.90547
-1.61349
-1.32034
-1.02652
-0.732502
-0.43876
-0.145789
0.145953
0.436036
0.724047
1.00958
1.29227
1.5718
1.84784
2.12015
2.38846
2.6526
2.91239
3.16773
3.41854
3.66479
3.90648
4.14368
4.37645
4.60493
4.82927
5.04968
5.26639
5.47968
5.68982
5.89715
6.10201
6.3048
6.50592
6.70579
6.90485
7.10357
7.30239
7.50181
7.70228
7.90426
8.1082
8.31448
8.52344
8.7354
8.95056
9.16908
9.39111
9.61666
9.8457
10.078
10.3135
10.5516
10.7929
11.0337
11.2869
11.4878
-7.95292
-7.95768
-7.9656
-7.97213
-7.97667
-7.98
-7.98255
-7.98457
-7.98627
-7.98785
-7.98946
-7.99125
-7.9933
-7.99572
-7.99856
-8.00189
-8.00574
-8.01017
-8.01521
-8.02089
-8.02723
-8.03426
-8.042
-8.05047
-8.05968
-8.06963
-8.08033
-8.09179
-8.10399
-8.11695
-8.13065
-8.14508
-8.16024
-8.17612
-8.19269
-8.20996
-8.2279
-8.24651
-8.26574
-8.2856
-8.30605
-8.32707
-8.34864
-8.37073
-8.39331
-8.41634
-8.43979
-8.46363
-8.48781
-8.5123
-8.53702
-8.56195
-8.58701
-8.61215
-8.63729
-8.66237
-8.6873
-8.712
-8.73638
-8.76034
-8.78376
-8.80654
-8.82856
-8.84969
-8.8698
-8.88874
-8.90636
-8.92252
-8.93703
-8.94974
-8.96046
-8.96901
-8.97521
-8.97884
-8.97971
-8.97762
-8.97234
-8.96365
-8.95133
-8.93516
-8.91491
-8.89034
-8.86121
-8.8273
-8.78836
-8.74416
-8.69447
-8.63905
-8.57768
-8.51014
-8.43622
-8.35571
-8.2684
-8.1741
-8.07263
-7.9638
-7.84748
-7.72352
-7.59182
-7.45227
-7.30479
-7.14933
-6.98584
-6.8143
-6.63472
-6.44715
-6.25165
-6.04832
-5.83728
-5.6187
-5.39276
-5.15969
-4.91974
-4.67321
-4.4204
-4.16167
-3.89739
-3.62798
-3.35384
-3.07545
-2.79329
-2.50784
-2.21962
-1.92914
-1.63693
-1.34352
-1.04944
-0.755155
-0.46116
-0.167914
0.124103
0.414478
0.70277
0.988586
1.27155
1.55132
1.8276
2.1001
2.36859
2.63286
2.89277
3.14818
3.39904
3.64527
3.88691
4.12399
4.35661
4.58487
4.80895
5.02901
5.24532
5.45811
5.6677
5.87439
6.07855
6.28056
6.48082
6.67974
6.87779
7.07542
7.2731
7.47131
7.67053
7.87121
8.07381
8.27872
8.48632
8.6969
8.91071
9.12794
9.34875
9.5732
9.80121
10.0326
10.2671
10.5042
10.7442
10.9826
11.2324
11.4243
-7.94669
-7.95202
-7.9609
-7.96848
-7.97393
-7.97805
-7.98132
-7.984
-7.9863
-7.98845
-7.99059
-7.99288
-7.99542
-7.99829
-8.00158
-8.00533
-8.00961
-8.01444
-8.01986
-8.0259
-8.03258
-8.03993
-8.04796
-8.05669
-8.06612
-8.07627
-8.08714
-8.09872
-8.11103
-8.12405
-8.13778
-8.15222
-8.16736
-8.1832
-8.19972
-8.21691
-8.23476
-8.25325
-8.27237
-8.2921
-8.31243
-8.33332
-8.35476
-8.37672
-8.39918
-8.42211
-8.44546
-8.46922
-8.49333
-8.51775
-8.54244
-8.56734
-8.5924
-8.61756
-8.64273
-8.66787
-8.69287
-8.71767
-8.74215
-8.76624
-8.78981
-8.81276
-8.83496
-8.85629
-8.87661
-8.89578
-8.91365
-8.93006
-8.94485
-8.95784
-8.96886
-8.97772
-8.98423
-8.9882
-8.98941
-8.98766
-8.98274
-8.97441
-8.96247
-8.94668
-8.92681
-8.90263
-8.8739
-8.84039
-8.80186
-8.75807
-8.70878
-8.65378
-8.59282
-8.52568
-8.45217
-8.37207
-8.28515
-8.19124
-8.09015
-7.9817
-7.86575
-7.74215
-7.61078
-7.47154
-7.32436
-7.16916
-7.0059
-6.83457
-6.65517
-6.46774
-6.27235
-6.06909
-5.85808
-5.6395
-5.41353
-5.18038
-4.94032
-4.69364
-4.44064
-4.18169
-3.91716
-3.64745
-3.373
-3.09427
-2.81174
-2.52592
-2.23731
-1.94644
-1.65384
-1.36003
-1.06555
-0.770915
-0.476586
-0.183023
0.109311
0.399987
0.688565
0.974635
1.25782
1.53779
1.81422
2.08683
2.35539
2.61967
2.87955
3.1349
3.38564
3.63171
3.87314
4.10993
4.3422
4.57004
4.79363
5.01314
5.22881
5.4409
5.6497
5.85552
6.05873
6.25971
6.45886
6.6566
6.85341
7.04973
7.24605
7.44286
7.64063
7.83985
8.04097
8.24442
8.45057
8.65975
8.87223
9.08822
9.3079
9.53132
9.75842
9.98899
10.2227
10.4589
10.6975
10.9338
11.1806
11.3653
-7.94357
-7.94915
-7.95846
-7.9667
-7.97284
-7.97761
-7.98149
-7.98475
-7.98761
-7.99028
-7.99292
-7.99569
-7.99868
-8.00199
-8.0057
-8.00985
-8.0145
-8.0197
-8.02546
-8.03182
-8.03881
-8.04643
-8.05472
-8.06367
-8.07331
-8.08363
-8.09464
-8.10635
-8.11875
-8.13184
-8.14562
-8.1601
-8.17525
-8.19109
-8.20759
-8.22475
-8.24256
-8.26101
-8.28008
-8.29976
-8.32002
-8.34087
-8.36226
-8.38418
-8.4066
-8.42951
-8.45285
-8.47661
-8.50073
-8.52518
-8.54992
-8.57488
-8.60002
-8.62527
-8.65056
-8.67582
-8.70097
-8.72592
-8.75059
-8.77486
-8.79864
-8.8218
-8.84423
-8.8658
-8.88637
-8.9058
-8.92394
-8.94062
-8.95569
-8.96897
-8.98028
-8.98944
-8.99625
-9.00051
-9.00203
-9.00058
-8.99596
-8.98794
-8.97631
-8.96082
-8.94125
-8.91736
-8.88893
-8.85571
-8.81746
-8.77395
-8.72494
-8.6702
-8.6095
-8.54262
-8.46935
-8.38948
-8.30278
-8.20907
-8.10817
-7.9999
-7.8841
-7.76065
-7.6294
-7.49025
-7.34313
-7.18796
-7.0247
-6.85333
-6.67386
-6.48633
-6.2908
-6.08737
-5.87616
-5.65734
-5.43108
-5.19762
-4.95722
-4.71015
-4.45675
-4.19735
-3.93235
-3.66216
-3.3872
-3.10796
-2.82491
-2.53856
-2.24943
-1.95806
-1.66496
-1.37069
-1.07575
-0.780715
-0.486024
-0.192139
0.100503
0.391451
0.680272
0.966534
1.24987
1.52993
1.8064
2.07901
2.34751
2.6117
2.87141
3.12655
3.377
3.62276
3.86378
4.10012
4.33185
4.55911
4.78202
5.00079
5.21564
5.42684
5.63466
5.83945
6.04154
6.24134
6.43924
6.63568
6.83112
7.02603
7.22089
7.4162
7.61246
7.81016
8.00976
8.21171
8.41641
8.6242
8.83538
9.05019
9.26882
9.4913
9.71758
9.9474
10.1804
10.4157
10.6531
10.8875
11.1319
11.311
-7.94355
-7.94911
-7.95842
-7.96693
-7.97349
-7.9787
-7.98304
-7.98676
-7.99007
-7.99318
-7.99626
-7.99944
-8.00283
-8.00652
-8.01058
-8.01507
-8.02005
-8.02554
-8.03159
-8.03822
-8.04545
-8.05331
-8.0618
-8.07094
-8.08074
-8.09121
-8.10235
-8.11417
-8.12666
-8.13983
-8.15368
-8.16821
-8.1834
-8.19926
-8.21578
-8.23296
-8.25078
-8.26924
-8.28832
-8.30801
-8.32829
-8.34915
-8.37056
-8.39252
-8.41498
-8.43793
-8.46134
-8.48517
-8.50939
-8.53395
-8.5588
-8.58389
-8.60918
-8.63459
-8.66005
-8.6855
-8.71085
-8.73602
-8.7609
-8.78541
-8.80943
-8.83284
-8.85553
-8.87736
-8.89819
-8.91789
-8.93629
-8.95324
-8.96858
-8.98212
-8.9937
-9.00311
-9.01018
-9.01469
-9.01646
-9.01525
-9.01086
-9.00307
-8.99165
-8.97637
-8.957
-8.93331
-8.90506
-8.87202
-8.83394
-8.79058
-8.74172
-8.68711
-8.62653
-8.55975
-8.48658
-8.40678
-8.32014
-8.22648
-8.1256
-8.01733
-7.90152
-7.77802
-7.64671
-7.50747
-7.36022
-7.20489
-7.04144
-6.86984
-6.69012
-6.50229
-6.30643
-6.10264
-5.89103
-5.67177
-5.44506
-5.2111
-4.97017
-4.72256
-4.46857
-4.20858
-3.94297
-3.67214
-3.39656
-3.11668
-2.833
-2.54604
-2.25631
-1.96436
-1.67073
-1.37594
-1.08055
-0.785104
-0.490067
-0.195881
0.0970151
0.388191
0.677195
0.963586
1.24698
1.52704
1.80344
2.07592
2.34423
2.60817
2.86757
3.12233
3.37234
3.61758
3.85801
4.0937
4.32471
4.55117
4.77321
4.99105
5.2049
5.41504
5.62174
5.82534
6.02619
6.22469
6.42123
6.61627
6.81026
7.00369
7.19704
7.39082
7.58554
7.78171
7.9798
8.18027
8.38356
8.59002
8.79998
9.01369
9.23133
9.45297
9.67852
9.90768
10.14
10.3745
10.6108
10.8435
11.0859
11.2607
-7.94634
-7.95167
-7.96061
-7.96905
-7.97575
-7.9812
-7.98581
-7.98984
-7.99348
-7.99692
-8.00033
-8.00383
-8.00753
-8.01152
-8.01587
-8.02063
-8.02586
-8.03159
-8.03786
-8.0447
-8.05212
-8.06016
-8.06881
-8.07811
-8.08804
-8.09864
-8.10989
-8.1218
-8.13438
-8.14763
-8.16155
-8.17614
-8.19139
-8.20731
-8.22388
-8.24111
-8.25899
-8.2775
-8.29664
-8.3164
-8.33675
-8.35768
-8.37918
-8.40123
-8.4238
-8.44687
-8.47041
-8.49438
-8.51875
-8.54347
-8.56849
-8.59378
-8.61926
-8.64487
-8.67056
-8.69623
-8.72182
-8.74723
-8.77236
-8.79711
-8.82138
-8.84505
-8.86799
-8.89007
-8.91115
-8.93109
-8.94972
-8.96691
-8.98246
-8.99622
-9.008
-9.01761
-9.02487
-9.02956
-9.03148
-9.03043
-9.02618
-9.01852
-9.00721
-8.99204
-8.97277
-8.94916
-8.92097
-8.88798
-8.84994
-8.80662
-8.75777
-8.70316
-8.64257
-8.57577
-8.50255
-8.42268
-8.33597
-8.2422
-8.14121
-8.0328
-7.91682
-7.79313
-7.66161
-7.52212
-7.3746
-7.21896
-7.05517
-6.8832
-6.70307
-6.51481
-6.31848
-6.11417
-5.90203
-5.68221
-5.4549
-5.22032
-4.97875
-4.73047
-4.47581
-4.21512
-3.94879
-3.67726
-3.40097
-3.12039
-2.83604
-2.54842
-2.25807
-1.96552
-1.67133
-1.37603
-1.0802
-0.784364
-0.488999
-0.194544
0.0985524
0.389885
0.678986
0.965407
1.24876
1.52868
1.80489
2.07707
2.34503
2.60853
2.86744
3.12161
3.37099
3.6155
3.85516
4.08998
4.32007
4.54553
4.76654
4.98326
5.19595
5.40486
5.61029
5.81256
6.01204
6.20912
6.40422
6.59777
6.79025
6.98215
7.17397
7.36621
7.55941
7.75407
7.9507
8.14977
8.35172
8.55695
8.76578
8.9785
9.19529
9.4162
9.64112
9.86972
10.1015
10.3353
10.5707
10.8019
11.0426
11.2143
-7.95148
-7.95641
-7.96473
-7.9728
-7.97939
-7.98485
-7.98956
-7.99374
-7.99756
-8.00121
-8.00484
-8.00856
-8.01248
-8.01668
-8.02123
-8.02618
-8.03159
-8.0375
-8.04394
-8.05093
-8.05849
-8.06665
-8.07543
-8.08483
-8.09488
-8.10556
-8.1169
-8.12891
-8.14157
-8.1549
-8.1689
-8.18356
-8.19889
-8.21489
-8.23155
-8.24886
-8.26682
-8.28543
-8.30466
-8.32452
-8.34499
-8.36606
-8.3877
-8.40989
-8.43262
-8.45586
-8.47957
-8.50372
-8.52828
-8.5532
-8.57844
-8.60393
-8.62964
-8.65548
-8.6814
-8.70731
-8.73313
-8.75877
-8.78414
-8.80913
-8.83362
-8.85751
-8.88065
-8.90294
-8.92421
-8.94433
-8.96313
-8.98047
-8.99617
-9.01006
-9.02195
-9.03166
-9.03899
-9.04375
-9.04573
-9.04472
-9.0405
-9.03284
-9.02154
-9.00635
-8.98705
-8.96339
-8.93515
-8.90209
-8.86397
-8.82055
-8.77159
-8.71686
-8.65613
-8.58918
-8.51579
-8.43574
-8.34882
-8.25484
-8.15361
-8.04494
-7.92869
-7.8047
-7.67284
-7.533
-7.38509
-7.22904
-7.0648
-6.89236
-6.71172
-6.52292
-6.32602
-6.12113
-5.90837
-5.6879
-5.45991
-5.22465
-4.98238
-4.73338
-4.47799
-4.21656
-3.94949
-3.67722
-3.4002
-3.11891
-2.83386
-2.54557
-2.25458
-1.96144
-1.6667
-1.37093
-1.07468
-0.77849
-0.482841
-0.1882
0.105003
0.396367
0.685436
0.97174
1.25488
1.53452
1.81033
2.08206
2.34947
2.61235
2.87056
3.12397
3.37251
3.61611
3.85478
4.08856
4.31755
4.54184
4.76161
4.97706
5.18842
5.39595
5.59997
5.80079
5.99879
6.19435
6.38791
6.57992
6.77084
6.96118
7.15145
7.34216
7.53385
7.72706
7.92228
8.12002
8.32072
8.52481
8.73263
8.94448
9.16052
9.38082
9.60522
9.83337
10.0647
10.2979
10.5325
10.7625
11.0019
11.1714
-7.95843
-7.96285
-7.97036
-7.97783
-7.98409
-7.98938
-7.994
-7.99816
-8.00203
-8.00575
-8.00947
-8.0133
-8.01734
-8.02166
-8.02633
-8.03141
-8.03693
-8.04295
-8.04949
-8.05657
-8.06423
-8.07248
-8.08134
-8.09083
-8.10095
-8.11172
-8.12314
-8.13522
-8.14796
-8.16138
-8.17546
-8.19021
-8.20564
-8.22173
-8.23848
-8.25589
-8.27395
-8.29267
-8.31203
-8.33203
-8.35264
-8.37387
-8.39568
-8.41806
-8.44098
-8.46441
-8.48832
-8.51267
-8.53743
-8.56255
-8.58799
-8.6137
-8.63961
-8.66566
-8.69178
-8.71789
-8.74391
-8.76974
-8.79528
-8.82043
-8.84508
-8.8691
-8.89237
-8.91476
-8.93612
-8.95631
-8.97517
-8.99255
-9.00826
-9.02215
-9.03403
-9.0437
-9.05099
-9.05568
-9.05758
-9.05647
-9.05213
-9.04436
-9.03292
-9.01758
-8.99811
-8.97429
-8.94586
-8.91261
-8.87428
-8.83065
-8.78146
-8.7265
-8.66552
-8.59831
-8.52465
-8.44432
-8.35712
-8.26283
-8.16127
-8.05226
-7.93565
-7.81128
-7.67901
-7.53875
-7.39039
-7.23387
-7.06914
-6.89618
-6.715
-6.52563
-6.32813
-6.12261
-5.9092
-5.68806
-5.45939
-5.22343
-4.98042
-4.73069
-4.47455
-4.21237
-3.94456
-3.67155
-3.3938
-3.11181
-2.82608
-2.53715
-2.24556
-1.95188
-1.65667
-1.36051
-1.06393
-0.767481
-0.471671
-0.176986
0.116176
0.40741
0.696272
0.982283
1.26503
1.54418
1.81941
2.09048
2.35713
2.6192
2.87651
3.12895
3.37644
3.61894
3.85643
4.08898
4.31666
4.53961
4.75799
4.972
5.18188
5.38792
5.59039
5.78966
5.98607
6.18006
6.37202
6.56244
6.75178
6.94055
7.12928
7.3185
7.50874
7.70055
7.89446
8.09096
8.29055
8.49363
8.70058
8.91168
9.12712
9.34694
9.57096
9.79877
10.0297
10.2625
10.4964
10.7255
10.9638
11.132
-7.96664
-7.9705
-7.97709
-7.9838
-7.98956
-7.99449
-7.99886
-8.00284
-8.0066
-8.01026
-8.01395
-8.01777
-8.02182
-8.02617
-8.03087
-8.03599
-8.04157
-8.04763
-8.05422
-8.06137
-8.06908
-8.0774
-8.08632
-8.09587
-8.10605
-8.11689
-8.12837
-8.14052
-8.15333
-8.16682
-8.18098
-8.19581
-8.21131
-8.22749
-8.24434
-8.26186
-8.28004
-8.29889
-8.31839
-8.33854
-8.35931
-8.38071
-8.4027
-8.42525
-8.44835
-8.47196
-8.49604
-8.52056
-8.54548
-8.57076
-8.59635
-8.6222
-8.64825
-8.67443
-8.70067
-8.72689
-8.753
-8.7789
-8.8045
-8.82969
-8.85435
-8.87837
-8.90161
-8.92396
-8.94525
-8.96535
-8.98411
-9.00135
-9.01692
-9.03065
-9.04234
-9.05182
-9.0589
-9.06337
-9.06503
-9.06367
-9.05908
-9.05104
-9.03932
-9.0237
-9.00395
-8.97984
-8.95112
-8.91757
-8.87894
-8.835
-8.78551
-8.73024
-8.66894
-8.6014
-8.52742
-8.44677
-8.35922
-8.26458
-8.16266
-8.05328
-7.93628
-7.8115
-7.67882
-7.53811
-7.3893
-7.2323
-7.06706
-6.89358
-6.71184
-6.5219
-6.32381
-6.11767
-5.90362
-5.68183
-5.45248
-5.21583
-4.97213
-4.72168
-4.46483
-4.20194
-3.93344
-3.65974
-3.38134
-3.09871
-2.81239
-2.52291
-2.23083
-1.93672
-1.64117
-1.34473
-1.04794
-0.751382
-0.455589
-0.161026
0.131909
0.422824
0.711273
0.99678
1.27893
1.55737
1.83181
2.10199
2.36769
2.62872
2.88492
3.13618
3.38242
3.62361
3.85974
4.09087
4.31709
4.53852
4.75535
4.96779
5.17607
5.38048
5.58132
5.77894
5.97372
6.16606
6.3564
6.5452
6.73297
6.9202
7.10743
7.2952
7.48407
7.67457
7.86727
8.06266
8.26125
8.46346
8.66967
8.88017
9.09515
9.31461
9.53837
9.76596
9.99667
10.2291
10.4625
10.6908
10.9282
11.0959
-7.97563
-7.97891
-7.98453
-7.99038
-7.99548
-7.9999
-8.00385
-8.00751
-8.01099
-8.01445
-8.01797
-8.02168
-8.02564
-8.02992
-8.03458
-8.03968
-8.04525
-8.05132
-8.05792
-8.06508
-8.07283
-8.08117
-8.09012
-8.0997
-8.10992
-8.12079
-8.13232
-8.14451
-8.15737
-8.17091
-8.18512
-8.20002
-8.2156
-8.23186
-8.2488
-8.26642
-8.28471
-8.30367
-8.32329
-8.34356
-8.36446
-8.38597
-8.40807
-8.43073
-8.45393
-8.47763
-8.50179
-8.52637
-8.55135
-8.57666
-8.60228
-8.62814
-8.65418
-8.68033
-8.70653
-8.73268
-8.7587
-8.78449
-8.80996
-8.83499
-8.85947
-8.88329
-8.90631
-8.92841
-8.94944
-8.96926
-8.98771
-9.00464
-9.01988
-9.03326
-9.04461
-9.05373
-9.06043
-9.06453
-9.06581
-9.06407
-9.0591
-9.05067
-9.03857
-9.02257
-9.00245
-8.97796
-8.94887
-8.91495
-8.87596
-8.83166
-8.78182
-8.72618
-8.66454
-8.59666
-8.52234
-8.44134
-8.35345
-8.25846
-8.15618
-8.04643
-7.92906
-7.80389
-7.67081
-7.52969
-7.38044
-7.223
-7.0573
-6.88333
-6.70109
-6.51063
-6.312
-6.1053
-5.89068
-5.6683
-5.43836
-5.2011
-4.95678
-4.70572
-4.44826
-4.18477
-3.91568
-3.64142
-3.36249
-3.07937
-2.79259
-2.50272
-2.21031
-1.91595
-1.62021
-1.32364
-1.02684
-0.730374
-0.434801
-0.140564
0.15193
0.442298
0.730104
1.01487
1.29619
1.57369
1.84711
2.11618
2.38069
2.64045
2.89534
3.14521
3.39002
3.6297
3.8643
4.09383
4.31843
4.53821
4.75336
4.9641
5.17068
5.37338
5.57253
5.76845
5.96155
6.15224
6.34096
6.52818
6.7144
6.90015
7.08595
7.27237
7.45996
7.64928
7.84089
8.03532
8.23305
8.43454
8.64016
8.85022
9.06487
9.28413
9.50774
9.73524
9.96582
10.198
10.4311
10.6589
10.8954
11.0632
-7.98539
-7.98809
-7.99274
-7.99764
-8.00194
-8.00567
-8.00902
-8.01215
-8.01519
-8.01827
-8.02149
-8.02494
-8.0287
-8.03282
-8.03736
-8.04237
-8.04786
-8.05388
-8.06044
-8.06757
-8.07529
-8.08361
-8.09255
-8.10211
-8.11231
-8.12317
-8.13469
-8.14688
-8.15973
-8.17327
-8.18749
-8.2024
-8.21798
-8.23426
-8.25121
-8.26885
-8.28716
-8.30614
-8.32577
-8.34604
-8.36692
-8.3884
-8.41045
-8.43305
-8.45616
-8.47976
-8.5038
-8.52826
-8.55307
-8.57821
-8.60363
-8.62927
-8.65507
-8.68097
-8.70688
-8.73272
-8.7584
-8.78384
-8.80892
-8.83354
-8.8576
-8.88097
-8.90353
-8.92515
-8.94569
-8.96501
-8.98296
-8.99937
-9.0141
-9.02696
-9.03778
-9.04639
-9.05258
-9.05617
-9.05695
-9.05471
-9.04926
-9.04036
-9.02781
-9.01136
-8.9908
-8.96589
-8.9364
-8.90207
-8.8627
-8.81803
-8.76783
-8.71187
-8.6499
-8.58172
-8.50708
-8.42577
-8.33756
-8.24226
-8.13967
-8.02962
-7.91193
-7.78644
-7.65303
-7.51158
-7.36198
-7.20418
-7.03811
-6.86376
-6.68113
-6.49025
-6.2912
-6.08408
-5.86902
-5.64618
-5.41579
-5.17807
-4.93331