/*--------------------------------*- C++ -*----------------------------------*\
| =========                 |                                                 |
| \\      /  F ield         | OpenFOAM: The Open Source CFD Toolbox           |
|  \\    /   O peration     | Version:  v2006                                 |
|   \\  /    A nd           | Website:  www.openfoam.com                      |
|    \\/     M anipulation  |                                                 |
\*---------------------------------------------------------------------------*/
FoamFile
{
    version     2.0;
    format      ascii;
    class       surfaceScalarField;
    location    "200";
    object      phi;
}
// * * * * * * * * * * * * * * * * * * * * * * * * * * * * * * * * * * * * * //

dimensions      [0 3 -1 0 0 0 0];
oriented        oriented;


internalField   nonuniform List<scalar> 
24170
(
3.11512e-06
7.3289e-08
3.01296e-06
1.0215e-07
2.91749e-06
9.54684e-08
2.82631e-06
9.11755e-08
2.74031e-06
8.6001e-08
2.66279e-06
7.75164e-08
2.59489e-06
6.78953e-08
2.53598e-06
5.89093e-08
2.48494e-06
5.10393e-08
2.44068e-06
4.42596e-08
2.40224e-06
3.84404e-08
2.3688e-06
3.34349e-08
2.3397e-06
2.90963e-08
2.3144e-06
2.53022e-08
2.29258e-06
2.18109e-08
2.27378e-06
1.88022e-08
2.25781e-06
1.59724e-08
1.26298e-08
2.24518e-06
3.46865e-06
2.18854e-08
3.48677e-06
8.40253e-08
3.49345e-06
8.87923e-08
3.49232e-06
9.23036e-08
3.48432e-06
9.39935e-08
3.47071e-06
9.11257e-08
3.45278e-06
8.58227e-08
3.43174e-06
7.9947e-08
3.40869e-06
7.40822e-08
3.38456e-06
6.8387e-08
3.36005e-06
6.29511e-08
3.33566e-06
5.78232e-08
3.31177e-06
5.29867e-08
3.28864e-06
4.84286e-08
3.26647e-06
4.39791e-08
3.24549e-06
3.9784e-08
3.22643e-06
3.5023e-08
2.87688e-08
3.21029e-06
3.66801e-06
1.63917e-08
3.68031e-06
7.17248e-08
3.69e-06
7.90964e-08
3.70002e-06
8.22825e-08
3.70913e-06
8.48833e-08
3.71622e-06
8.40329e-08
3.72118e-06
8.08573e-08
3.72423e-06
7.69012e-08
3.72559e-06
7.27202e-08
3.72552e-06
6.84571e-08
3.72427e-06
6.42001e-08
3.72207e-06
6.00188e-08
3.71913e-06
5.59265e-08
3.71564e-06
5.19119e-08
3.71175e-06
4.78673e-08
3.70781e-06
4.37309e-08
3.70382e-06
3.90048e-08
3.31263e-08
3.69946e-06
3.92495e-06
1.68269e-08
3.93556e-06
6.11142e-08
3.94312e-06
7.15375e-08
3.95014e-06
7.52579e-08
3.95682e-06
7.81998e-08
3.96261e-06
7.8239e-08
3.96758e-06
7.5894e-08
3.9719e-06
7.25719e-08
3.97569e-06
6.893e-08
3.979e-06
6.51502e-08
3.98188e-06
6.13197e-08
3.98439e-06
5.75054e-08
3.98659e-06
5.37243e-08
3.98854e-06
4.99571e-08
3.99029e-06
4.61128e-08
3.99194e-06
4.20853e-08
3.99332e-06
3.76189e-08
3.24167e-08
3.99403e-06
4.20772e-06
1.62303e-08
4.21609e-06
5.27486e-08
4.22226e-06
6.53664e-08
4.22774e-06
6.97728e-08
4.23318e-06
7.27557e-08
4.23821e-06
7.32099e-08
4.24274e-06
7.13659e-08
4.24686e-06
6.84471e-08
4.25065e-06
6.51374e-08
4.25416e-06
6.16446e-08
4.25742e-06
5.80588e-08
4.26048e-06
5.44462e-08
4.26337e-06
5.08293e-08
4.26614e-06
4.71898e-08
4.26879e-06
4.34559e-08
4.27134e-06
3.95387e-08
4.27366e-06
3.52978e-08
3.06029e-08
4.27547e-06
4.51042e-06
1.48944e-08
4.51713e-06
4.6044e-08
4.52283e-06
5.96583e-08
4.52796e-06
6.46393e-08
4.5331e-06
6.76176e-08
4.53796e-06
6.83506e-08
4.54239e-06
6.69363e-08
4.54644e-06
6.43934e-08
4.55019e-06
6.13838e-08
4.5537e-06
5.81374e-08
4.557e-06
5.47546e-08
4.56014e-06
5.13054e-08
4.56315e-06
4.78202e-08
4.56605e-06
4.42879e-08
4.56884e-06
4.06599e-08
4.57151e-06
3.68743e-08
4.57394e-06
3.28603e-08
2.85883e-08
4.57596e-06
4.83415e-06
1.34663e-08
4.83991e-06
4.02832e-08
4.84554e-06
5.40218e-08
4.85066e-06
5.95209e-08
4.85572e-06
6.25563e-08
4.86055e-06
6.35209e-08
4.86499e-06
6.24897e-08
4.86909e-06
6.02998e-08
4.87289e-06
5.75745e-08
4.87647e-06
5.45613e-08
4.87985e-06
5.13729e-08
4.88307e-06
4.80838e-08
4.88616e-06
4.47332e-08
4.88912e-06
4.13207e-08
4.89196e-06
3.78203e-08
4.89464e-06
3.41974e-08
4.89707e-06
3.043e-08
2.65445e-08
4.89911e-06
5.18096e-06
1.20904e-08
5.18605e-06
3.51835e-08
5.19158e-06
4.84931e-08
5.19671e-06
5.43872e-08
5.20177e-06
5.74974e-08
5.20665e-06
5.8642e-08
5.21119e-06
5.79441e-08
5.21541e-06
5.60837e-08
5.21935e-06
5.36341e-08
5.22305e-06
5.08534e-08
5.22656e-06
4.78645e-08
5.2299e-06
4.47465e-08
5.23308e-06
4.15472e-08
5.23612e-06
3.82783e-08
5.23901e-06
3.49342e-08
5.2417e-06
3.15045e-08
5.24413e-06
2.79977e-08
2.44631e-08
5.24621e-06
5.55268e-06
1.07517e-08
5.55721e-06
3.06528e-08
5.56252e-06
4.31773e-08
5.56764e-06
4.92672e-08
5.57271e-06
5.24218e-08
5.57767e-06
5.36877e-08
5.58234e-06
5.32694e-08
5.58671e-06
5.17125e-08
5.59081e-06
4.95294e-08
5.59468e-06
4.69822e-08
5.59835e-06
4.42009e-08
5.60182e-06
4.1269e-08
5.60513e-06
3.82413e-08
5.60826e-06
3.51422e-08
5.61121e-06
3.19825e-08
5.61395e-06
2.8771e-08
5.61641e-06
2.55329e-08
2.23268e-08
5.61855e-06
5.95107e-06
9.45601e-09
5.95511e-06
2.66109e-08
5.96017e-06
3.81224e-08
5.96524e-06
4.41921e-08
5.97032e-06
4.73415e-08
5.97533e-06
4.86741e-08
5.98012e-06
4.84771e-08
5.98464e-06
4.71897e-08
5.98891e-06
4.52582e-08
5.99295e-06
4.2941e-08
5.99678e-06
4.03729e-08
6.00041e-06
3.76404e-08
6.00384e-06
3.48039e-08
6.00709e-06
3.18983e-08
6.01012e-06
2.89471e-08
6.01292e-06
2.59729e-08
6.01544e-06
2.30083e-08
2.01135e-08
6.01765e-06
6.37804e-06
8.22404e-09
6.38168e-06
2.29768e-08
6.38646e-06
3.334e-08
6.39146e-06
3.91904e-08
6.39652e-06
4.22759e-08
6.40157e-06
4.3627e-08
6.40645e-06
4.35924e-08
6.4111e-06
4.25351e-08
6.41553e-06
4.08357e-08
6.41973e-06
3.87411e-08
6.42371e-06
3.6388e-08
6.42748e-06
3.38649e-08
6.43105e-06
3.12354e-08
6.43441e-06
2.85426e-08
6.43753e-06
2.58186e-08
6.44041e-06
2.30942e-08
6.44301e-06
2.04044e-08
1.78066e-08
6.44532e-06
5.74182e-06
7.2344e-09
5.74462e-06
2.01747e-08
5.74846e-06
2.95072e-08
5.75261e-06
3.50341e-08
5.75687e-06
3.80158e-08
5.76114e-06
3.93509e-08
5.76532e-06
3.94102e-08
5.76934e-06
3.85151e-08
5.77318e-06
3.69959e-08
5.77684e-06
3.50827e-08
5.78032e-06
3.29111e-08
5.78361e-06
3.05701e-08
5.78672e-06
2.81252e-08
5.78964e-06
2.56233e-08
5.79235e-06
2.31015e-08
5.79485e-06
2.05939e-08
5.79712e-06
1.81352e-08
1.57797e-08
5.79915e-06
6.99922e-06
6.17284e-09
7.00219e-06
1.71981e-08
7.00635e-06
2.53465e-08
7.01099e-06
3.03896e-08
7.01583e-06
3.31774e-08
7.02073e-06
3.44489e-08
7.02557e-06
3.45724e-08
7.03025e-06
3.38288e-08
7.03475e-06
3.24957e-08
7.03905e-06
3.07812e-08
7.04315e-06
2.88163e-08
7.04703e-06
2.66886e-08
7.05069e-06
2.44631e-08
7.05412e-06
2.21896e-08
7.05732e-06
1.99073e-08
7.06026e-06
1.76519e-08
7.06294e-06
1.5455e-08
1.33674e-08
7.06535e-06
8.53197e-06
5.04852e-09
8.53509e-06
1.40747e-08
8.53955e-06
2.08879e-08
8.54467e-06
2.52674e-08
8.5501e-06
2.77447e-08
8.55566e-06
2.8886e-08
8.56121e-06
2.90287e-08
8.56662e-06
2.84134e-08
8.57185e-06
2.72652e-08
8.57687e-06
2.57637e-08
8.58165e-06
2.40303e-08
8.58619e-06
2.21483e-08
8.59047e-06
2.018e-08
8.59449e-06
1.81745e-08
8.59822e-06
1.61709e-08
8.60167e-06
1.42034e-08
8.60483e-06
1.22997e-08
1.05044e-08
8.60769e-06
1.04004e-05
3.87267e-09
1.04036e-05
1.0826e-08
1.04084e-05
1.61565e-08
1.0414e-05
1.96817e-08
1.042e-05
2.17077e-08
1.04262e-05
2.26313e-08
1.04325e-05
2.27321e-08
1.04387e-05
2.22078e-08
1.04448e-05
2.12335e-08
1.04506e-05
1.99539e-08
1.04561e-05
1.84749e-08
1.04614e-05
1.68705e-08
1.04664e-05
1.51975e-08
1.04711e-05
1.35002e-08
1.04754e-05
1.18147e-08
1.04795e-05
1.01708e-08
1.04832e-05
8.59147e-09
7.11427e-09
1.04866e-05
1.2678e-05
2.653e-09
1.26814e-05
7.45003e-09
1.26864e-05
1.11546e-08
1.26924e-05
1.36333e-08
1.26991e-05
1.50468e-08
1.27061e-05
1.56436e-08
1.27132e-05
1.56264e-08
1.27202e-05
1.51435e-08
1.27272e-05
1.43209e-08
1.27338e-05
1.32654e-08
1.27403e-05
1.20588e-08
1.27464e-05
1.07618e-08
1.27521e-05
9.41994e-09
1.27576e-05
8.06989e-09
1.27626e-05
6.74042e-09
1.27674e-05
5.45582e-09
1.27717e-05
4.23205e-09
3.10032e-09
1.27757e-05
1.54545e-05
1.38109e-09
1.5458e-05
3.90379e-09
1.54633e-05
5.82738e-09
1.54699e-05
7.06658e-09
1.54772e-05
7.69368e-09
1.5485e-05
7.83747e-09
1.54931e-05
7.61442e-09
1.55011e-05
7.11461e-09
1.5509e-05
6.41403e-09
1.55167e-05
5.57807e-09
1.55241e-05
4.65877e-09
1.55311e-05
3.69567e-09
1.55378e-05
2.7192e-09
1.55442e-05
1.7536e-09
1.55501e-05
8.18056e-10
1.55556e-05
-7.17754e-11
1.55607e-05
-9.06532e-10
-1.66298e-09
1.55655e-05
1.8839e-05
1.79059e-11
1.88428e-05
6.31993e-11
1.88487e-05
-1.66429e-12
1.88559e-05
-2.14347e-10
1.88642e-05
-5.56462e-10
1.8873e-05
-9.99078e-10
1.88822e-05
-1.51801e-09
1.88914e-05
-2.09111e-09
1.89005e-05
-2.69611e-09
1.89094e-05
-3.31341e-09
1.89179e-05
-3.92754e-09
1.89262e-05
-4.52622e-09
1.8934e-05
-5.09942e-09
1.89414e-05
-5.63883e-09
1.89483e-05
-6.13785e-09
1.89548e-05
-6.59094e-09
1.89609e-05
-6.99626e-09
-7.33878e-09
1.89666e-05
2.29649e-05
-1.53754e-09
2.29693e-05
-4.36561e-09
2.29761e-05
-6.76739e-09
2.29846e-05
-8.71303e-09
2.29942e-05
-1.02193e-08
2.30046e-05
-1.13723e-08
2.30154e-05
-1.22619e-08
2.30262e-05
-1.2942e-08
2.3037e-05
-1.34499e-08
2.30475e-05
-1.38205e-08
2.30576e-05
-1.40847e-08
2.30673e-05
-1.42642e-08
2.30766e-05
-1.43746e-08
2.30854e-05
-1.44266e-08
2.30937e-05
-1.4429e-08
2.31015e-05
-1.43877e-08
2.31088e-05
-1.4309e-08
-1.41864e-08
2.31157e-05
1.68119e-05
-2.74054e-09
1.68153e-05
-7.77098e-09
1.68205e-05
-1.19854e-08
1.6827e-05
-1.52294e-08
1.68344e-05
-1.75464e-08
1.68422e-05
-1.91702e-08
1.68502e-05
-2.02941e-08
1.68583e-05
-2.10188e-08
1.68662e-05
-2.14212e-08
1.6874e-05
-2.15819e-08
1.68815e-05
-2.15659e-08
1.68886e-05
-2.14203e-08
1.68954e-05
-2.11777e-08
1.69019e-05
-2.08642e-08
1.69079e-05
-2.04981e-08
1.69136e-05
-2.00936e-08
1.6919e-05
-1.9661e-08
-1.91999e-08
1.6924e-05
1.46357e-05
-3.87419e-09
1.4639e-05
-1.10347e-08
1.4644e-05
-1.70282e-08
1.46502e-05
-2.14302e-08
1.4657e-05
-2.43849e-08
1.46642e-05
-2.63654e-08
1.46716e-05
-2.76473e-08
1.46789e-05
-2.83495e-08
1.46861e-05
-2.85996e-08
1.4693e-05
-2.85281e-08
1.46997e-05
-2.8231e-08
1.4706e-05
-2.77716e-08
1.47121e-05
-2.7198e-08
1.47177e-05
-2.65473e-08
1.47231e-05
-2.58477e-08
1.47281e-05
-2.51182e-08
1.47328e-05
-2.43737e-08
-2.36169e-08
1.47372e-05
1.27412e-05
-4.89889e-09
1.27444e-05
-1.42794e-08
1.27495e-05
-2.21482e-08
1.27556e-05
-2.74809e-08
1.2762e-05
-3.08518e-08
1.27688e-05
-3.31067e-08
1.27756e-05
-3.44907e-08
1.27824e-05
-3.51042e-08
1.27889e-05
-3.51483e-08
1.27952e-05
-3.48145e-08
1.28012e-05
-3.42217e-08
1.28069e-05
-3.34468e-08
1.28122e-05
-3.25506e-08
1.28172e-05
-3.15804e-08
1.2822e-05
-3.05705e-08
1.28264e-05
-2.95428e-08
1.28305e-05
-2.85129e-08
-2.7484e-08
1.28344e-05
1.10917e-05
-5.681e-09
1.1095e-05
-1.75482e-08
1.11004e-05
-2.75525e-08
1.11064e-05
-3.34703e-08
1.11125e-05
-3.70052e-08
1.11189e-05
-3.94481e-08
1.11252e-05
-4.0858e-08
1.11314e-05
-4.13198e-08
1.11374e-05
-4.113e-08
1.11431e-05
-4.05251e-08
1.11485e-05
-3.9634e-08
1.11536e-05
-3.85463e-08
1.11584e-05
-3.73363e-08
1.11629e-05
-3.60623e-08
1.11671e-05
-3.47621e-08
1.1171e-05
-3.34622e-08
1.11747e-05
-3.21803e-08
-3.09251e-08
1.11781e-05
9.65564e-06
-6.10678e-09
9.65904e-06
-2.09538e-08
9.66464e-06
-3.31527e-08
9.67044e-06
-3.92679e-08
9.67636e-06
-4.29244e-08
9.68242e-06
-4.55078e-08
9.68836e-06
-4.68071e-08
9.69406e-06
-4.7022e-08
9.6995e-06
-4.65668e-08
9.70466e-06
-4.56888e-08
9.70953e-06
-4.45082e-08
9.71411e-06
-4.31233e-08
9.71839e-06
-4.16208e-08
9.7224e-06
-4.00661e-08
9.72613e-06
-3.85014e-08
9.72962e-06
-3.69529e-08
9.73288e-06
-3.54339e-08
-3.39383e-08
9.73589e-06
8.40494e-06
-5.69859e-09
8.40932e-06
-2.53339e-08
8.41474e-06
-3.85763e-08
8.41986e-06
-4.4383e-08
8.42543e-06
-4.85012e-08
8.4313e-06
-5.13765e-08
8.43702e-06
-5.25313e-08
8.44246e-06
-5.24555e-08
8.44759e-06
-5.17039e-08
8.45243e-06
-5.05254e-08
8.45696e-06
-4.90367e-08
8.46118e-06
-4.73467e-08
8.46511e-06
-4.55521e-08
8.46876e-06
-4.37237e-08
8.47217e-06
-4.19059e-08
8.47534e-06
-4.01277e-08
8.47832e-06
-3.84135e-08
-3.67729e-08
8.48115e-06
7.31365e-06
-2.06107e-09
7.32071e-06
-3.23971e-08
7.32651e-06
-4.43826e-08
7.33133e-06
-4.91958e-08
7.33671e-06
-5.38855e-08
7.34237e-06
-5.70429e-08
7.34791e-06
-5.80705e-08
7.35322e-06
-5.77704e-08
7.35829e-06
-5.67692e-08
7.36306e-06
-5.52995e-08
7.36752e-06
-5.34949e-08
7.37166e-06
-5.1486e-08
7.37549e-06
-4.93853e-08
7.37903e-06
-4.72685e-08
7.38231e-06
-4.51855e-08
7.38535e-06
-4.31661e-08
7.38816e-06
-4.12211e-08
-3.92992e-08
7.39068e-06
6.36047e-06
7.53608e-09
6.3703e-06
-4.22277e-08
6.37818e-06
-5.22707e-08
6.38525e-06
-5.62636e-08
6.39238e-06
-6.10113e-08
6.39899e-06
-6.36612e-08
6.40498e-06
-6.40635e-08
6.41054e-06
-6.33225e-08
6.41574e-06
-6.19733e-08
6.42059e-06
-6.01508e-08
6.42507e-06
-5.79812e-08
6.42919e-06
-5.56055e-08
6.43296e-06
-5.31523e-08
6.43639e-06
-5.06983e-08
6.4395e-06
-4.83014e-08
6.44234e-06
-4.60029e-08
6.44495e-06
-4.3834e-08
-4.18225e-08
6.44747e-06
5.53917e-06
1.38302e-08
5.54752e-06
-5.05803e-08
5.55587e-06
-6.06169e-08
5.56612e-06
-6.65206e-08
5.57732e-06
-7.22151e-08
5.58782e-06
-7.41605e-08
5.59704e-06
-7.32841e-08
5.605e-06
-7.12842e-08
5.61177e-06
-6.8746e-08
5.61743e-06
-6.58102e-08
5.62205e-06
-6.26e-08
5.62571e-06
-5.92706e-08
5.62852e-06
-5.59571e-08
5.63055e-06
-5.27342e-08
5.6319e-06
-4.96535e-08
5.63268e-06
-4.67839e-08
5.63298e-06
-4.4136e-08
-4.18018e-08
5.63296e-06
4.87157e-06
-3.01351e-08
4.88648e-06
-6.54868e-08
4.89722e-06
-7.13604e-08
4.90599e-06
-7.52992e-08
4.91304e-06
-7.92633e-08
4.91732e-06
-7.84431e-08
4.91816e-06
-7.41193e-08
4.91542e-06
-6.85536e-08
4.90944e-06
-6.27627e-08
4.90072e-06
-5.7088e-08
4.88981e-06
-5.17e-08
4.87724e-06
-4.66979e-08
4.86345e-06
-4.21634e-08
4.8488e-06
-3.80889e-08
4.8336e-06
-3.44603e-08
4.81812e-06
-3.13012e-08
4.80261e-06
-2.86268e-08
-2.69323e-08
4.78774e-06
4.17254e-06
4.10705e-06
4.03569e-06
3.96039e-06
3.88113e-06
3.80269e-06
3.72857e-06
3.66001e-06
3.59725e-06
3.54016e-06
3.48846e-06
3.44176e-06
3.3996e-06
3.36151e-06
3.32705e-06
3.29575e-06
3.26712e-06
3.24019e-06
1.2402e-08
-1.24377e-08
2.98312e-08
-1.74844e-08
4.58417e-08
-1.60548e-08
5.80669e-08
-1.22696e-08
6.55951e-08
-7.5666e-09
6.82914e-08
-2.73864e-09
6.65355e-08
1.71899e-09
6.10304e-08
5.46152e-09
5.26404e-08
8.35143e-09
4.21171e-08
1.04761e-08
3.00576e-08
1.20181e-08
1.68406e-08
1.31651e-08
2.74934e-09
1.40473e-08
-1.21994e-08
1.48969e-08
-2.80958e-08
1.58572e-08
-4.50145e-08
1.68726e-08
-6.30312e-08
1.79838e-08
-8.22838e-08
1.92107e-08
-1.02864e-07
2.05494e-08
-1.24889e-07
2.19845e-08
-1.48412e-07
2.34939e-08
-1.73506e-07
2.5052e-08
-2.00168e-07
2.66317e-08
-2.28418e-07
2.82048e-08
-2.58194e-07
2.97454e-08
-2.89469e-07
3.12298e-08
-3.22137e-07
3.26393e-08
-3.56139e-07
3.39583e-08
-3.91339e-07
3.51737e-08
-4.27653e-07
3.62735e-08
-4.64926e-07
3.72511e-08
-5.03065e-07
3.81039e-08
-5.41918e-07
3.8836e-08
-5.81399e-07
3.9451e-08
-6.21366e-07
3.99555e-08
-6.61746e-07
4.0355e-08
-7.02414e-07
4.06586e-08
-7.43312e-07
4.08742e-08
-7.84336e-07
4.10153e-08
-8.25455e-07
4.10964e-08
-8.66604e-07
4.11399e-08
-9.07795e-07
4.11702e-08
-9.49007e-07
4.12047e-08
-9.90265e-07
4.12396e-08
-1.03154e-06
4.12724e-08
-1.07286e-06
4.12999e-08
-1.11419e-06
4.13227e-08
-1.15554e-06
4.13382e-08
-1.19689e-06
4.13474e-08
-1.23826e-06
4.13477e-08
-1.27961e-06
4.13399e-08
-1.32095e-06
4.13211e-08
-1.36226e-06
4.12918e-08
-1.40353e-06
4.12489e-08
-1.44473e-06
4.11927e-08
-1.48588e-06
4.1119e-08
-1.52692e-06
4.10281e-08
-1.56786e-06
4.0916e-08
-1.60865e-06
4.07828e-08
-1.6493e-06
4.06237e-08
-1.68975e-06
4.04393e-08
-1.73e-06
4.02253e-08
-1.76998e-06
3.99821e-08
-1.8097e-06
3.97047e-08
-1.8491e-06
3.93939e-08
-1.88816e-06
3.90449e-08
-1.92682e-06
3.86589e-08
-1.96507e-06
3.82313e-08
-2.00283e-06
3.77636e-08
-2.04009e-06
3.72512e-08
-2.07679e-06
3.66959e-08
-2.11289e-06
3.60932e-08
-2.14833e-06
3.54448e-08
-2.18309e-06
3.47463e-08
-2.21709e-06
3.40001e-08
-2.25031e-06
3.32017e-08
-2.28266e-06
3.23542e-08
-2.31413e-06
3.14539e-08
-2.34464e-06
3.05037e-08
-2.37415e-06
2.9499e-08
-2.40259e-06
2.84428e-08
-2.42992e-06
2.73312e-08
-2.45608e-06
2.61671e-08
-2.48103e-06
2.49459e-08
-2.50469e-06
2.3671e-08
-2.52703e-06
2.23385e-08
-2.54797e-06
2.09513e-08
-2.56746e-06
1.95048e-08
-2.58543e-06
1.79985e-08
-2.60182e-06
1.64283e-08
-2.61659e-06
1.47878e-08
-2.62964e-06
1.30715e-08
-2.6409e-06
1.12723e-08
-2.65027e-06
9.38069e-09
-2.65765e-06
7.3808e-09
-2.6629e-06
5.25571e-09
-2.6659e-06
3.00595e-09
-2.6666e-06
6.98338e-10
-2.66515e-06
-1.45139e-09
-2.66175e-06
-3.40213e-09
-2.65645e-06
-5.3006e-09
-2.64926e-06
-7.19191e-09
-2.64017e-06
-9.09417e-09
-2.62917e-06
-1.10108e-08
-2.61624e-06
-1.29389e-08
-2.60136e-06
-1.48767e-08
-2.58454e-06
-1.6819e-08
-2.56576e-06
-1.87627e-08
-2.54505e-06
-2.07025e-08
-2.5224e-06
-2.26346e-08
-2.49782e-06
-2.45535e-08
-2.47134e-06
-2.64544e-08
-2.44298e-06
-2.83318e-08
-2.41277e-06
-3.01798e-08
-2.38074e-06
-3.19934e-08
-2.34694e-06
-3.37662e-08
-2.31141e-06
-3.54935e-08
-2.27421e-06
-3.71683e-08
-2.23539e-06
-3.87858e-08
-2.19501e-06
-4.03382e-08
-2.15315e-06
-4.18213e-08
-2.10988e-06
-4.32277e-08
-2.06528e-06
-4.45565e-08
-2.01943e-06
-4.58008e-08
-1.97243e-06
-4.6964e-08
-1.92435e-06
-4.80446e-08
-1.87529e-06
-4.90497e-08
-1.82533e-06
-4.99536e-08
-1.77459e-06
-5.07554e-08
-1.72316e-06
-5.14615e-08
-1.67113e-06
-5.20742e-08
-1.6186e-06
-5.25828e-08
-1.56569e-06
-5.29893e-08
-1.51249e-06
-5.32895e-08
-1.4591e-06
-5.34847e-08
-1.40562e-06
-5.35739e-08
-1.35216e-06
-5.35569e-08
-1.29882e-06
-5.34353e-08
-1.24568e-06
-5.32086e-08
-1.19283e-06
-5.28869e-08
-1.14038e-06
-5.24758e-08
-1.08839e-06
-5.19874e-08
-1.03696e-06
-5.14253e-08
-9.86135e-07
-5.07979e-08
-9.35987e-07
-5.01067e-08
-8.86566e-07
-4.9363e-08
-8.37921e-07
-4.85701e-08
-7.90088e-07
-4.77413e-08
-7.43096e-07
-4.68807e-08
-6.96959e-07
-4.60044e-08
-6.51689e-07
-4.51169e-08
-6.07277e-07
-4.42347e-08
-5.63714e-07
-4.33642e-08
-5.20965e-07
-4.25249e-08
-4.78998e-07
-4.17224e-08
-4.37754e-07
-4.09747e-08
-3.97176e-07
-4.02908e-08
-3.57177e-07
-3.96904e-08
-3.17676e-07
-3.91773e-08
-2.78561e-07
-3.87714e-08
-2.39723e-07
-3.84845e-08
-2.01029e-07
-3.83234e-08
-1.62362e-07
-3.82911e-08
-1.23516e-07
-3.84556e-08
-8.43616e-08
-3.87636e-08
-4.48411e-08
-3.91199e-08
-5.00341e-09
-3.94431e-08
3.49493e-08
-3.95529e-08
7.50038e-08
-3.96736e-08
1.15707e-07
-4.03286e-08
1.57635e-07
-4.15791e-08
2.01239e-07
-4.32616e-08
2.46804e-07
-4.5251e-08
2.94512e-07
-4.74052e-08
3.44345e-07
-4.95626e-08
3.95993e-07
-5.13924e-08
4.48553e-07
-5.23409e-08
4.99487e-07
-5.07331e-08
5.43507e-07
-4.38503e-08
-1.60678e-09
5.45269e-07
1.40828e-08
-2.65536e-08
2.30832e-08
-2.65264e-08
2.65222e-08
-1.95203e-08
2.58829e-08
-1.16534e-08
2.21637e-08
-3.86652e-09
1.58954e-08
3.50979e-09
7.35261e-09
1.0244e-08
-3.38474e-09
1.61793e-08
-1.63005e-08
2.12496e-08
-3.13413e-08
2.54977e-08
-4.83954e-08
2.90551e-08
-6.73458e-08
3.20969e-08
-8.81146e-08
3.47999e-08
-1.10561e-07
3.73259e-08
-1.3452e-07
3.98013e-08
-1.59969e-07
4.23049e-08
-1.86881e-07
4.48826e-08
-2.15234e-07
4.75478e-08
-2.44986e-07
5.02884e-08
-2.76093e-07
5.30754e-08
-3.08483e-07
5.5871e-08
-3.42081e-07
5.86337e-08
-3.76786e-07
6.13218e-08
-4.12496e-07
6.38969e-08
-4.49091e-07
6.6325e-08
-4.86458e-07
6.85782e-08
-5.24469e-07
7.0636e-08
-5.63016e-07
7.24861e-08
-6.0198e-07
7.41226e-08
-6.41267e-07
7.55426e-08
-6.80777e-07
7.67473e-08
-7.20434e-07
7.77449e-08
-7.60159e-07
7.85498e-08
-7.99902e-07
7.9179e-08
-8.39606e-07
7.9651e-08
-8.79249e-07
7.99847e-08
-9.18798e-07
8.02002e-08
-9.58253e-07
8.03168e-08
-9.976e-07
8.03549e-08
-1.03685e-06
8.03349e-08
-1.076e-06
8.02778e-08
-1.11504e-06
8.02004e-08
-1.15395e-06
8.01123e-08
-1.19274e-06
8.00154e-08
-1.23138e-06
7.99105e-08
-1.26988e-06
7.9797e-08
-1.30824e-06
7.96744e-08
-1.34645e-06
7.95411e-08
-1.3845e-06
7.93955e-08
-1.4224e-06
7.92352e-08
-1.46012e-06
7.90579e-08
-1.49768e-06
7.88607e-08
-1.53503e-06
7.86409e-08
-1.57219e-06
7.83951e-08
-1.60913e-06
7.81199e-08
-1.64583e-06
7.78115e-08
-1.68228e-06
7.74665e-08
-1.71846e-06
7.70807e-08
-1.75434e-06
7.66507e-08
-1.7899e-06
7.61722e-08
-1.82511e-06
7.56422e-08
-1.85995e-06
7.50564e-08
-1.89439e-06
7.44119e-08
-1.9284e-06
7.37043e-08
-1.96194e-06
7.2931e-08
-1.99499e-06
7.20882e-08
-2.02751e-06
7.11734e-08
-2.05947e-06
7.01834e-08
-2.09082e-06
6.91162e-08
-2.12154e-06
6.79687e-08
-2.15159e-06
6.67391e-08
-2.18093e-06
6.54246e-08
-2.20951e-06
6.40238e-08
-2.2373e-06
6.25341e-08
-2.26425e-06
6.09545e-08
-2.29034e-06
5.9283e-08
-2.31551e-06
5.75196e-08
-2.33972e-06
5.56623e-08
-2.36293e-06
5.37111e-08
-2.3851e-06
5.16638e-08
-2.40618e-06
4.95209e-08
-2.42613e-06
4.72804e-08
-2.4449e-06
4.49426e-08
-2.46246e-06
4.25058e-08
-2.47876e-06
3.99709e-08
-2.49375e-06
3.73366e-08
-2.5074e-06
3.46038e-08
-2.51965e-06
3.17704e-08
-2.53047e-06
2.88365e-08
-2.53983e-06
2.57992e-08
-2.54768e-06
2.26568e-08
-2.55401e-06
1.9408e-08
-2.55878e-06
1.60539e-08
-2.56199e-06
1.25982e-08
-2.56366e-06
9.05031e-09
-2.56384e-06
5.43485e-09
-2.56263e-06
1.79391e-09
-2.5601e-06
-1.82819e-09
-2.55611e-06
-5.44378e-09
-2.55042e-06
-9.09218e-09
-2.54295e-06
-1.2779e-08
-2.53364e-06
-1.65007e-08
-2.52248e-06
-2.02572e-08
-2.50946e-06
-2.40444e-08
-2.49454e-06
-2.78559e-08
-2.47774e-06
-3.16845e-08
-2.45903e-06
-3.5522e-08
-2.43843e-06
-3.93602e-08
-2.41593e-06
-4.31897e-08
-2.39155e-06
-4.70015e-08
-2.3653e-06
-5.07852e-08
-2.33721e-06
-5.45309e-08
-2.3073e-06
-5.82275e-08
-2.27559e-06
-6.18641e-08
-2.24214e-06
-6.54293e-08
-2.20697e-06
-6.89118e-08
-2.17014e-06
-7.23002e-08
-2.1317e-06
-7.55829e-08
-2.09172e-06
-7.8748e-08
-2.05025e-06
-8.17832e-08
-2.00737e-06
-8.46773e-08
-1.96315e-06
-8.74195e-08
-1.91767e-06
-9.00022e-08
-1.87103e-06
-9.24173e-08
-1.82331e-06
-9.46617e-08
-1.7746e-06
-9.6736e-08
-1.72499e-06
-9.86468e-08
-1.67458e-06
-1.00366e-07
-1.62346e-06
-1.01883e-07
-1.57173e-06
-1.03208e-07
-1.51948e-06
-1.04343e-07
-1.46682e-06
-1.05276e-07
-1.41385e-06
-1.06005e-07
-1.36066e-06
-1.06527e-07
-1.30735e-06
-1.06842e-07
-1.25403e-06
-1.0695e-07
-1.20079e-06
-1.06854e-07
-1.14771e-06
-1.06554e-07
-1.0949e-06
-1.06059e-07
-1.04243e-06
-1.05379e-07
-9.90381e-07
-1.0453e-07
-9.38841e-07
-1.03525e-07
-8.87878e-07
-1.02383e-07
-8.37549e-07
-1.0111e-07
-7.87909e-07
-9.97241e-08
-7.39002e-07
-9.82355e-08
-6.90867e-07
-9.66661e-08
-6.43528e-07
-9.50268e-08
-5.97007e-07
-9.33441e-08
-5.51305e-07
-9.16317e-08
-5.06423e-07
-8.99195e-08
-4.62339e-07
-8.82203e-08
-4.19032e-07
-8.65684e-08
-3.76454e-07
-8.4981e-08
-3.34556e-07
-8.34936e-08
-2.93265e-07
-8.21206e-08
-2.52503e-07
-8.09038e-08
-2.12167e-07
-7.98605e-08
-1.72151e-07
-7.90264e-08
-1.32321e-07
-7.84188e-08
-9.25361e-08
-7.80867e-08
-5.26369e-08
-7.80267e-08
-1.24775e-08
-7.82576e-08
2.80377e-08
-7.87671e-08
6.90212e-08
-7.95499e-08
1.10757e-07
-8.06529e-08
1.53588e-07
-8.20799e-08
1.9794e-07
-8.37066e-08
2.44106e-07
-8.56523e-08
2.92166e-07
-8.8199e-08
3.42204e-07
-9.14381e-08
3.9438e-07
-9.52605e-08
4.48794e-07
-9.94992e-08
5.05454e-07
-1.03903e-07
5.6417e-07
-1.08131e-07
6.24497e-07
-1.1158e-07
6.85326e-07
-1.13048e-07
7.45071e-07
-1.10367e-07
7.9851e-07
-9.71932e-08
-5.20388e-08
8.49027e-07
5.28909e-09
-3.18689e-08
3.55579e-09
-2.48223e-08
-2.02157e-09
-1.39607e-08
-1.00966e-08
-3.59299e-09
-2.00359e-08
6.06108e-09
-3.15481e-08
1.50102e-08
-4.45403e-08
2.32259e-08
-5.90399e-08
3.06678e-08
-7.51232e-08
3.73229e-08
-9.28669e-08
4.32305e-08
-1.12306e-07
4.8484e-08
-1.33433e-07
5.32135e-08
-1.56202e-07
5.75593e-08
-1.80537e-07
6.16506e-08
-2.06336e-07
6.55919e-08
-2.33497e-07
6.94553e-08
-2.61902e-07
7.32798e-08
-2.91438e-07
7.70746e-08
-3.21984e-07
8.08262e-08
-3.53423e-07
8.45058e-08
-3.85636e-07
8.80767e-08
-4.18512e-07
9.14999e-08
-4.51937e-07
9.47387e-08
-4.85812e-07
9.77612e-08
-5.20038e-07
1.00542e-07
-5.54535e-07
1.03064e-07
-5.89223e-07
1.05315e-07
-6.24038e-07
1.0729e-07
-6.58914e-07
1.0899e-07
-6.9381e-07
1.10427e-07
-7.28691e-07
1.11619e-07
-7.63543e-07
1.12586e-07
-7.9835e-07
1.13348e-07
-8.33107e-07
1.13927e-07
-8.6781e-07
1.14346e-07
-9.02463e-07
1.14628e-07
-9.37065e-07
1.14796e-07
-9.71626e-07
1.14869e-07
-1.00615e-06
1.14869e-07
-1.04063e-06
1.14813e-07
-1.07508e-06
1.14716e-07
-1.10948e-06
1.14593e-07
-1.14382e-06
1.14449e-07
-1.1781e-06
1.14289e-07
-1.2123e-06
1.14114e-07
-1.24644e-06
1.13926e-07
-1.28049e-06
1.13722e-07
-1.31445e-06
1.13501e-07
-1.34832e-06
1.13261e-07
-1.38209e-06
1.12999e-07
-1.41575e-06
1.12709e-07
-1.44928e-06
1.12389e-07
-1.48268e-06
1.12035e-07
-1.51593e-06
1.1164e-07
-1.54902e-06
1.11201e-07
-1.58193e-06
1.10712e-07
-1.61464e-06
1.10168e-07
-1.64713e-06
1.09564e-07
-1.67938e-06
1.08895e-07
-1.71137e-06
1.08154e-07
-1.74307e-06
1.07338e-07
-1.77446e-06
1.06441e-07
-1.80551e-06
1.05457e-07
-1.8362e-06
1.04383e-07
-1.86649e-06
1.03214e-07
-1.89635e-06
1.01945e-07
-1.92575e-06
1.00571e-07
-1.95466e-06
9.90902e-08
-1.98305e-06
9.74975e-08
-2.01087e-06
9.57895e-08
-2.0381e-06
9.39632e-08
-2.06469e-06
9.20153e-08
-2.09061e-06
8.9943e-08
-2.11582e-06
8.77435e-08
-2.14028e-06
8.54147e-08
-2.16396e-06
8.29544e-08
-2.1868e-06
8.03613e-08
-2.20877e-06
7.76334e-08
-2.22983e-06
7.47698e-08
-2.24994e-06
7.17687e-08
-2.26905e-06
6.86295e-08
-2.28712e-06
6.5351e-08
-2.30411e-06
6.19328e-08
-2.31998e-06
5.83743e-08
-2.33468e-06
5.46757e-08
-2.34818e-06
5.0837e-08
-2.36043e-06
4.6859e-08
-2.37139e-06
4.27421e-08
-2.38103e-06
3.84872e-08
-2.38932e-06
3.4095e-08
-2.39622e-06
2.95667e-08
-2.40171e-06
2.49058e-08
-2.40577e-06
2.01187e-08
-2.40839e-06
1.5215e-08
-2.40955e-06
1.02104e-08
-2.40924e-06
5.12696e-09
-2.40744e-06
-1.13256e-11
-2.40407e-06
-5.19539e-09
-2.39907e-06
-1.04475e-08
-2.39238e-06
-1.57859e-08
-2.38396e-06
-2.12025e-08
-2.37378e-06
-2.66867e-08
-2.36181e-06
-3.22292e-08
-2.34804e-06
-3.78195e-08
-2.33245e-06
-4.3447e-08
-2.31504e-06
-4.90993e-08
-2.29579e-06
-5.47646e-08
-2.27472e-06
-6.04294e-08
-2.25182e-06
-6.60803e-08
-2.22711e-06
-7.1703e-08
-2.2006e-06
-7.72826e-08
-2.17232e-06
-8.28035e-08
-2.14228e-06
-8.82495e-08
-2.11053e-06
-9.36043e-08
-2.07709e-06
-9.88509e-08
-2.04202e-06
-1.03972e-07
-2.00535e-06
-1.08952e-07
-1.96715e-06
-1.13772e-07
-1.92747e-06
-1.18414e-07
-1.88637e-06
-1.22862e-07
-1.84393e-06
-1.27099e-07
-1.80022e-06
-1.31109e-07
-1.75532e-06
-1.34879e-07
-1.70932e-06
-1.38399e-07
-1.6623e-06
-1.41659e-07
-1.61437e-06
-1.4466e-07
-1.5656e-06
-1.47405e-07
-1.51609e-06
-1.49875e-07
-1.46593e-06
-1.52046e-07
-1.41522e-06
-1.53931e-07
-1.36405e-06
-1.55531e-07
-1.31251e-06
-1.56837e-07
-1.2607e-06
-1.57843e-07
-1.20872e-06
-1.58546e-07
-1.15665e-06
-1.58945e-07
-1.10459e-06
-1.59043e-07
-1.05264e-06
-1.58844e-07
-1.00087e-06
-1.58354e-07
-9.49366e-07
-1.57583e-07
-8.98209e-07
-1.56548e-07
-8.47474e-07
-1.5527e-07
-7.97233e-07
-1.53769e-07
-7.47545e-07
-1.52067e-07
-6.98465e-07
-1.50184e-07
-6.50037e-07
-1.4814e-07
-6.023e-07
-1.45959e-07
-5.55278e-07
-1.43667e-07
-5.08994e-07
-1.41289e-07
-4.63452e-07
-1.38857e-07
-4.18652e-07
-1.364e-07
-3.74579e-07
-1.33955e-07
-3.31208e-07
-1.31551e-07
-2.885e-07
-1.29228e-07
-2.46406e-07
-1.27025e-07
-2.0486e-07
-1.24983e-07
-1.63787e-07
-1.23137e-07
-1.23091e-07
-1.21536e-07
-8.26675e-08
-1.20222e-07
-4.23919e-08
-1.19234e-07
-2.13744e-09
-1.18607e-07
3.82265e-08
-1.18381e-07
7.88545e-08
-1.18588e-07
1.19948e-07
-1.19282e-07
1.61725e-07
-1.20478e-07
2.04422e-07
-1.22181e-07
2.4826e-07
-1.24429e-07
2.93478e-07
-1.27235e-07
3.40389e-07
-1.30559e-07
3.89268e-07
-1.34472e-07
4.4025e-07
-1.39125e-07
4.93422e-07
-1.44554e-07
5.48864e-07
-1.5065e-07
6.06608e-07
-1.57192e-07
6.66595e-07
-1.63841e-07
7.28604e-07
-1.70094e-07
7.92185e-07
-1.75118e-07
8.56527e-07
-1.77349e-07
9.20431e-07
-1.74235e-07
9.82397e-07
-1.59125e-07
-1.17752e-07
1.04814e-06
-4.61698e-09
-2.72737e-08
-1.43865e-08
-1.50748e-08
-2.60712e-08
-2.28905e-09
-3.89852e-08
9.31034e-09
-5.29044e-08
1.99716e-08
-6.77663e-08
2.98634e-08
-8.35926e-08
3.90445e-08
-1.00459e-07
4.75264e-08
-1.18464e-07
5.53198e-08
-1.377e-07
6.24584e-08
-1.58229e-07
6.90049e-08
-1.80069e-07
7.50451e-08
-2.03191e-07
8.06748e-08
-2.27534e-07
8.5985e-08
-2.52999e-07
9.10508e-08
-2.79476e-07
9.59246e-08
-3.06838e-07
1.00635e-07
-3.34958e-07
1.05189e-07
-3.63713e-07
1.09575e-07
-3.92988e-07
1.13774e-07
-4.22675e-07
1.17758e-07
-4.52682e-07
1.215e-07
-4.82924e-07
1.24975e-07
-5.13334e-07
1.28164e-07
-5.43852e-07
1.31054e-07
-5.74433e-07
1.33638e-07
-6.0504e-07
1.35916e-07
-6.35652e-07
1.37894e-07
-6.66255e-07
1.39586e-07
-6.96846e-07
1.4101e-07
-7.27422e-07
1.42189e-07
-7.57987e-07
1.43144e-07
-7.88545e-07
1.43899e-07
-8.19104e-07
1.44479e-07
-8.49669e-07
1.44906e-07
-8.80252e-07
1.45204e-07
-9.10855e-07
1.45393e-07
-9.41486e-07
1.45493e-07
-9.72143e-07
1.45521e-07
-1.00283e-06
1.45492e-07
-1.03354e-06
1.45419e-07
-1.06426e-06
1.45311e-07
-1.09499e-06
1.45175e-07
-1.12572e-06
1.45015e-07
-1.15645e-06
1.44833e-07
-1.18715e-06
1.4463e-07
-1.21784e-06
1.44404e-07
-1.24849e-06
1.44153e-07
-1.27911e-06
1.43873e-07
-1.30967e-06
1.43561e-07
-1.34018e-06
1.43211e-07
-1.37061e-06
1.42819e-07
-1.40096e-06
1.42378e-07
-1.43121e-06
1.41883e-07
-1.46134e-06
1.41327e-07
-1.49133e-06
1.40704e-07
-1.52118e-06
1.40008e-07
-1.55085e-06
1.39232e-07
-1.58033e-06
1.38369e-07
-1.60959e-06
1.37412e-07
-1.63862e-06
1.36356e-07
-1.66738e-06
1.35194e-07
-1.69584e-06
1.33919e-07
-1.72399e-06
1.32526e-07
-1.75179e-06
1.31009e-07
-1.77921e-06
1.29361e-07
-1.80622e-06
1.27579e-07
-1.83279e-06
1.25656e-07
-1.85889e-06
1.23588e-07
-1.88447e-06
1.21371e-07
-1.90951e-06
1.19e-07
-1.93397e-06
1.16471e-07
-1.95781e-06
1.13781e-07
-1.98099e-06
1.10926e-07
-2.00348e-06
1.07903e-07
-2.02523e-06
1.04709e-07
-2.04622e-06
1.01343e-07
-2.06638e-06
9.78013e-08
-2.0857e-06
9.40834e-08
-2.10412e-06
9.01872e-08
-2.1216e-06
8.61118e-08
-2.1381e-06
8.1856e-08
-2.15359e-06
7.74193e-08
-2.16801e-06
7.28017e-08
-2.18134e-06
6.80034e-08
-2.19353e-06
6.30253e-08
-2.20453e-06
5.78686e-08
-2.21432e-06
5.25351e-08
-2.22286e-06
4.70271e-08
-2.2301e-06
4.1347e-08
-2.23603e-06
3.54987e-08
-2.2406e-06
2.94877e-08
-2.24381e-06
2.33219e-08
-2.24561e-06
1.70124e-08
-2.24597e-06
1.05728e-08
-2.24486e-06
4.01877e-09
-2.24224e-06
-2.63768e-09
-2.23804e-06
-9.3952e-09
-2.23223e-06
-1.6264e-08
-2.22477e-06
-2.3248e-08
-2.21564e-06
-3.03379e-08
-2.20481e-06
-3.75205e-08
-2.19226e-06
-4.47821e-08
-2.17798e-06
-5.21077e-08
-2.16195e-06
-5.94825e-08
-2.14415e-06
-6.68898e-08
-2.1246e-06
-7.43137e-08
-2.10329e-06