/*--------------------------------*- C++ -*----------------------------------*\
| =========                 |                                                 |
| \\      /  F ield         | OpenFOAM: The Open Source CFD Toolbox           |
|  \\    /   O peration     | Version:  v2006                                 |
|   \\  /    A nd           | Website:  www.openfoam.com                      |
|    \\/     M anipulation  |                                                 |
\*---------------------------------------------------------------------------*/
FoamFile
{
    version     2.0;
    format      ascii;
    class       volVectorField;
    location    "200";
    object      U;
}
// * * * * * * * * * * * * * * * * * * * * * * * * * * * * * * * * * * * * * //

dimensions      [0 1 -1 0 0 0 0];


internalField   nonuniform List<vector> 
12225
(
(9.84118 -0.956372 0)
(9.59253 -0.887946 0)
(9.31755 -0.594491 0)
(9.01472 -0.370011 0)
(8.72578 -0.225977 0)
(8.46714 -0.137869 0)
(8.24003 -0.0844855 0)
(8.04174 -0.0516296 0)
(7.86978 -0.0312317 0)
(7.72075 -0.0185983 0)
(7.59163 -0.0106567 0)
(7.47931 -0.00571958 0)
(7.38162 -0.00271784 0)
(7.29657 -0.00100859 0)
(7.22251 -0.000128857 0)
(7.16039 -0.000498422 0)
(7.10073 0.00256752 0)
(7.07272 -0.0177084 0)
(10.0722 0.255857 0)
(10.1867 0.418355 0)
(10.2285 0.384144 0)
(10.2296 0.310408 0)
(10.2114 0.245686 0)
(10.1794 0.195439 0)
(10.1334 0.157682 0)
(10.0759 0.129674 0)
(10.0105 0.108825 0)
(9.94087 0.0930926 0)
(9.86926 0.080918 0)
(9.79746 0.0713058 0)
(9.72652 0.0635075 0)
(9.65761 0.0570505 0)
(9.5911 0.0512912 0)
(9.52795 0.0466788 0)
(9.46873 0.0401814 0)
(9.41543 0.0402566 0)
(10.0032 0.0599583 0)
(10.0309 0.0482996 0)
(10.0614 0.0100053 0)
(10.0897 5.07736e-06 0)
(10.1151 0.0081707 0)
(10.1376 0.0194274 0)
(10.1547 0.0290168 0)
(10.1657 0.0365014 0)
(10.1715 0.0420612 0)
(10.173 0.0459153 0)
(10.1711 0.0483777 0)
(10.1663 0.0497437 0)
(10.1591 0.0502499 0)
(10.1503 0.0500466 0)
(10.1401 0.0491676 0)
(10.1292 0.0476237 0)
(10.1183 0.0451254 0)
(10.1063 0.0403307 0)
(9.99715 0.00991885 0)
(10.009 0.0260984 0)
(10.0342 0.0383082 0)
(10.0554 0.0533955 0)
(10.0721 0.0649254 0)
(10.0875 0.0702653 0)
(10.1015 0.0714166 0)
(10.1134 0.07066 0)
(10.1236 0.06908 0)
(10.1326 0.0671034 0)
(10.1404 0.0649298 0)
(10.1473 0.0626815 0)
(10.1532 0.0603788 0)
(10.1585 0.0580014 0)
(10.1632 0.0554125 0)
(10.1675 0.0524723 0)
(10.1713 0.048697 0)
(10.1743 0.0429895 0)
(9.99907 0.00681095 0)
(10.0082 0.0343072 0)
(10.0279 0.048358 0)
(10.0436 0.0548998 0)
(10.0558 0.058366 0)
(10.0678 0.0595458 0)
(10.0793 0.0593133 0)
(10.0897 0.0585687 0)
(10.0991 0.0576728 0)
(10.1077 0.0566602 0)
(10.1157 0.0555226 0)
(10.1232 0.054255 0)
(10.1303 0.0528338 0)
(10.137 0.0512022 0)
(10.1434 0.0492415 0)
(10.1496 0.0467955 0)
(10.1554 0.0435398 0)
(10.1605 0.0391684 0)
(10.0002 0.00924486 0)
(10.008 0.0334136 0)
(10.0236 0.0440799 0)
(10.0369 0.0484067 0)
(10.0478 0.0518662 0)
(10.0585 0.0542618 0)
(10.069 0.0552913 0)
(10.0785 0.0554519 0)
(10.0871 0.0551362 0)
(10.0951 0.054475 0)
(10.1026 0.0535221 0)
(10.1098 0.0523201 0)
(10.1166 0.0508796 0)
(10.1231 0.0491715 0)
(10.1294 0.0471107 0)
(10.1355 0.044579 0)
(10.1412 0.0414069 0)
(10.1463 0.0374743 0)
(10.0003 0.00912704 0)
(10.007 0.0287615 0)
(10.0201 0.0388982 0)
(10.0322 0.0440316 0)
(10.0425 0.0481322 0)
(10.0525 0.0509329 0)
(10.0622 0.0521753 0)
(10.0711 0.0524069 0)
(10.0793 0.0520916 0)
(10.0869 0.0514041 0)
(10.094 0.0504143 0)
(10.1009 0.0491671 0)
(10.1074 0.0476779 0)
(10.1136 0.0459209 0)
(10.1196 0.0438328 0)
(10.1254 0.0413277 0)
(10.1307 0.0383161 0)
(10.1354 0.0347617 0)
(10.0004 0.00814595 0)
(10.006 0.0247141 0)
(10.0171 0.0348879 0)
(10.0283 0.0405333 0)
(10.0381 0.0446097 0)
(10.0475 0.0473213 0)
(10.0567 0.0485978 0)
(10.0652 0.0489104 0)
(10.073 0.048672 0)
(10.0804 0.0480494 0)
(10.0873 0.0471107 0)
(10.0939 0.0458982 0)
(10.1002 0.04443 0)
(10.1062 0.042689 0)
(10.112 0.0406346 0)
(10.1174 0.0382136 0)
(10.1223 0.0353893 0)
(10.1268 0.0321809 0)
(10.0004 0.00721083 0)
(10.0052 0.0215208 0)
(10.0146 0.0312722 0)
(10.0248 0.0369512 0)
(10.0341 0.0408471 0)
(10.0429 0.0434731 0)
(10.0516 0.0448338 0)
(10.0598 0.0452717 0)
(10.0675 0.0451349 0)
(10.0746 0.0445888 0)
(10.0814 0.0437068 0)
(10.0878 0.0425337 0)
(10.0939 0.0410939 0)
(10.0997 0.039383 0)
(10.1052 0.0373816 0)
(10.1104 0.0350657 0)
(10.1151 0.0324324 0)
(10.1193 0.02953 0)
(10.0004 0.0063721 0)
(10.0045 0.0187472 0)
(10.0125 0.02775 0)
(10.0216 0.0332891 0)
(10.0303 0.0370344 0)
(10.0387 0.0395846 0)
(10.0469 0.0409982 0)
(10.0548 0.0415259 0)
(10.0622 0.0414643 0)
(10.0692 0.0409787 0)
(10.0758 0.0401471 0)
(10.0821 0.039017 0)
(10.088 0.0376181 0)
(10.0936 0.0359583 0)
(10.0989 0.0340352 0)
(10.1038 0.0318474 0)
(10.1083 0.0294114 0)
(10.1123 0.0267881 0)
(10.0004 0.00558248 0)
(10.0039 0.0162501 0)
(10.0107 0.0243874 0)
(10.0189 0.0296782 0)
(10.0269 0.0332527 0)
(10.0348 0.0356853 0)
(10.0426 0.0370896 0)
(10.0501 0.0376619 0)
(10.0573 0.03765 0)
(10.064 0.0372116 0)
(10.0704 0.0364272 0)
(10.0765 0.0353456 0)
(10.0823 0.0340006 0)
(10.0877 0.0324103 0)
(10.0928 0.0305855 0)
(10.0975 0.0285402 0)
(10.1018 0.0263012 0)
(10.1057 0.0239331 0)
(10.0003 0.00487789 0)
(10.0034 0.0141496 0)
(10.0093 0.0214622 0)
(10.0167 0.0264304 0)
(10.0242 0.0298035 0)
(10.0316 0.0320912 0)
(10.039 0.0334439 0)
(10.0462 0.0340243 0)
(10.053 0.0340384 0)
(10.0595 0.0336322 0)
(10.0658 0.0328863 0)
(10.0717 0.0318508 0)
(10.0772 0.0305628 0)
(10.0825 0.0290471 0)
(10.0874 0.027324 0)
(10.092 0.025416 0)
(10.0961 0.0233544 0)
(10.0999 0.0212029 0)
(10.0003 0.0042171 0)
(10.003 0.0122241 0)
(10.0082 0.0186996 0)
(10.0148 0.0232633 0)
(10.0217 0.026396 0)
(10.0287 0.0285156 0)
(10.0357 0.0297865 0)
(10.0425 0.0303491 0)
(10.0491 0.0303731 0)
(10.0554 0.0299898 0)
(10.0614 0.0292782 0)
(10.0671 0.0282894 0)
(10.0725 0.0270625 0)
(10.0775 0.0256275 0)
(10.0823 0.0240104 0)
(10.0867 0.0222394 0)
(10.0907 0.0203461 0)
(10.0944 0.0183934 0)
(10.0003 0.00352871 0)
(10.0026 0.0102169 0)
(10.0071 0.0157356 0)
(10.0129 0.0197565 0)
(10.0193 0.0225543 0)
(10.0258 0.0244414 0)
(10.0323 0.0255779 0)
(10.0387 0.0260844 0)
(10.045 0.0260956 0)
(10.051 0.0257241 0)
(10.0568 0.0250447 0)
(10.0622 0.0241082 0)
(10.0674 0.0229544 0)
(10.0723 0.0216164 0)
(10.0768 0.0201237 0)
(10.081 0.0185071 0)
(10.0849 0.016797 0)
(10.0885 0.0150521 0)
(10.0002 0.00280895 0)
(10.0022 0.00812434 0)
(10.006 0.0125808 0)
(10.0112 0.015918 0)
(10.0169 0.0182685 0)
(10.0229 0.0198429 0)
(10.0289 0.0207796 0)
(10.035 0.0211794 0)
(10.0409 0.0211453 0)
(10.0466 0.0207684 0)
(10.0521 0.0201155 0)
(10.0573 0.0192348 0)
(10.0622 0.0181649 0)
(10.0669 0.0169391 0)
(10.0712 0.0155876 0)
(10.0753 0.0141407 0)
(10.079 0.0126255 0)
(10.0824 0.0110944 0)
(10.0002 0.00205817 0)
(10.0019 0.00594921 0)
(10.0052 0.00924571 0)
(10.0097 0.0117568 0)
(10.0148 0.0135313 0)
(10.0202 0.0146956 0)
(10.0258 0.0153533 0)
(10.0314 0.0155827 0)
(10.037 0.0154587 0)
(10.0424 0.0150498 0)
(10.0475 0.014411 0)
(10.0525 0.0135843 0)
(10.0572 0.0126044 0)
(10.0616 0.0115014 0)
(10.0658 0.0103033 0)
(10.0696 0.00903657 0)
(10.0732 0.00772356 0)
(10.0765 0.00640929 0)
(10.0002 0.00127487 0)
(10.0016 0.00367986 0)
(10.0045 0.00571645 0)
(10.0084 0.00725992 0)
(10.013 0.00831994 0)
(10.018 0.00896128 0)
(10.0231 0.00924806 0)
(10.0283 0.00923251 0)
(10.0335 0.00896339 0)
(10.0386 0.00848676 0)
(10.0435 0.00784174 0)
(10.0482 0.00706037 0)
(10.0526 0.00616953 0)
(10.0568 0.00519342 0)
(10.0608 0.0041538 0)
(10.0645 0.00307169 0)
(10.068 0.00196293 0)
(10.0712 0.000864351 0)
(10.0002 0.000443718 0)
(10.0014 0.00126572 0)
(10.004 0.00192092 0)
(10.0075 0.00234703 0)
(10.0117 0.00254333 0)
(10.0163 0.00253327 0)
(10.0211 0.00234291 0)
(10.026 0.00199596 0)
(10.0309 0.00151596 0)
(10.0357 0.000925719 0)
(10.0403 0.000245461 0)
(10.0448 -0.000507288 0)
(10.0491 -0.00131692 0)
(10.0531 -0.00216886 0)
(10.0569 -0.00304966 0)
(10.0605 -0.00394617 0)
(10.0639 -0.00484931 0)
(10.067 -0.00573133 0)
(10.0001 -0.000478132 0)
(10.0014 -0.0014158 0)
(10.0038 -0.00231813 0)
(10.0071 -0.00318191 0)
(10.0112 -0.00400331 0)
(10.0156 -0.00479302 0)
(10.0202 -0.00556523 0)
(10.025 -0.00632747 0)
(10.0297 -0.00708245 0)
(10.0343 -0.00783205 0)
(10.0388 -0.00857823 0)
(10.0432 -0.00932158 0)
(10.0473 -0.0100614 0)
(10.0513 -0.0107959 0)
(10.055 -0.0115225 0)
(10.0585 -0.0122377 0)
(10.0618 -0.0129402 0)
(10.0649 -0.0136123 0)
(10.0002 -0.00135102 0)
(10.0014 -0.00396464 0)
(10.004 -0.00636018 0)
(10.0075 -0.00845289 0)
(10.0117 -0.0102302 0)
(10.0163 -0.0117466 0)
(10.021 -0.0130583 0)
(10.0258 -0.0141999 0)
(10.0306 -0.0151996 0)
(10.0353 -0.0160868 0)
(10.0399 -0.0168864 0)
(10.0442 -0.0176168 0)
(10.0484 -0.018291 0)
(10.0523 -0.0189189 0)
(10.0561 -0.0195079 0)
(10.0596 -0.0200631 0)
(10.0628 -0.0205892 0)
(10.0659 -0.0210771 0)
(10.0002 -0.00209084 0)
(10.0016 -0.00615987 0)
(10.0043 -0.00985817 0)
(10.0083 -0.0129577 0)
(10.0129 -0.0154655 0)
(10.0177 -0.0175313 0)
(10.0227 -0.0192536 0)
(10.0277 -0.0206722 0)
(10.0327 -0.0218322 0)
(10.0376 -0.0227914 0)
(10.0422 -0.0235989 0)
(10.0467 -0.0242893 0)
(10.0509 -0.0248879 0)
(10.0549 -0.0254148 0)
(10.0587 -0.0258852 0)
(10.0622 -0.0263101 0)
(10.0656 -0.0266987 0)
(10.0687 -0.0270476 0)
(10.0002 -0.00277465 0)
(10.0017 -0.00829282 0)
(10.0049 -0.013324 0)
(10.0094 -0.0173397 0)
(10.0145 -0.0204209 0)
(10.0198 -0.0228995 0)
(10.0251 -0.024929 0)
(10.0304 -0.0265496 0)
(10.0357 -0.027822 0)
(10.0408 -0.0288245 0)
(10.0456 -0.0296195 0)
(10.0502 -0.0302518 0)
(10.0545 -0.0307582 0)
(10.0586 -0.0311689 0)
(10.0624 -0.0315078 0)
(10.066 -0.0317914 0)
(10.0694 -0.0320328 0)
(10.0725 -0.0322313 0)
(10.0001 -0.00338311 0)
(10.0017 -0.0104013 0)
(10.0055 -0.0167747 0)
(10.0109 -0.0216188 0)
(10.0166 -0.0252433 0)
(10.0223 -0.028104 0)
(10.028 -0.0303285 0)
(10.0337 -0.0320014 0)
(10.0392 -0.0332664 0)
(10.0445 -0.0342417 0)
(10.0495 -0.0349925 0)
(10.0543 -0.0355632 0)
(10.0587 -0.0359944 0)
(10.0629 -0.0363214 0)
(10.0668 -0.0365707 0)
(10.0705 -0.0367609 0)
(10.0739 -0.0369068 0)
(10.0771 -0.0370139 0)
(10.0001 -0.00387179 0)
(10.0016 -0.0128927 0)
(10.0061 -0.0203222 0)
(10.0124 -0.0253855 0)
(10.0188 -0.0294439 0)
(10.025 -0.0329075 0)
(10.0312 -0.0355083 0)
(10.0373 -0.0372767 0)
(10.0431 -0.038478 0)
(10.0486 -0.0393133 0)
(10.0538 -0.0398802 0)
(10.0587 -0.0402442 0)
(10.0632 -0.0404637 0)
(10.0675 -0.0405869 0)
(10.0715 -0.040646 0)
(10.0753 -0.0406632 0)
(10.0788 -0.0406512 0)
(10.082 -0.0406071 0)
(9.9998 -0.0035492 0)
(10.0011 -0.0165512 0)
(10.007 -0.0255222 0)
(10.0141 -0.0296961 0)
(10.0207 -0.0330177 0)
(10.0273 -0.0364727 0)
(10.0341 -0.0394047 0)
(10.0409 -0.0415815 0)
(10.0472 -0.0431626 0)
(10.0532 -0.0442951 0)
(10.0587 -0.0450592 0)
(10.0639 -0.0455298 0)
(10.0688 -0.0457835 0)
(10.0733 -0.0458849 0)
(10.0775 -0.0458815 0)
(10.0814 -0.0458068 0)
(10.0851 -0.0456864 0)
(10.0885 -0.0455301 0)
(9.99829 1.87152e-07 0)
(9.99797 -0.01762 0)
(10.0068 -0.0315039 0)
(10.0162 -0.0375889 0)
(10.0233 -0.0402861 0)
(10.0303 -0.0418373 0)
(10.0379 -0.0427931 0)
(10.0455 -0.0434876 0)
(10.0526 -0.0440877 0)
(10.0593 -0.0446012 0)
(10.0656 -0.044995 0)
(10.0715 -0.0452809 0)
(10.077 -0.0454807 0)
(10.082 -0.0456222 0)
(10.0867 -0.0457199 0)
(10.091 -0.0457901 0)
(10.095 -0.0458379 0)
(10.0986 -0.0458312 0)
(9.99413 0.00277648 0)
(9.98996 -0.00760092 0)
(10.0032 -0.0228601 0)
(10.0185 -0.0396806 0)
(10.0302 -0.0530718 0)
(10.0403 -0.0608431 0)
(10.0501 -0.0643793 0)
(10.0593 -0.0656269 0)
(10.0677 -0.0657144 0)
(10.0756 -0.0650891 0)
(10.0829 -0.0640338 0)
(10.0897 -0.0627385 0)
(10.0959 -0.0613658 0)
(10.1015 -0.0599962 0)
(10.1066 -0.0586947 0)
(10.1113 -0.0574908 0)
(10.1156 -0.05641 0)
(10.1195 -0.0554052 0)
(9.9942 -0.0305074 0)
(9.99526 -0.0134574 0)
(10.0086 0.0215189 0)
(10.0272 0.0320169 0)
(10.047 0.0241423 0)
(10.0668 0.0116001 0)
(10.085 -0.000118071 0)
(10.1007 -0.010334 0)
(10.1139 -0.018974 0)
(10.125 -0.0260468 0)
(10.1343 -0.0316477 0)
(10.1417 -0.0360193 0)
(10.1476 -0.039393 0)
(10.1519 -0.0419862 0)
(10.1549 -0.0439622 0)
(10.1568 -0.0454904 0)
(10.1578 -0.0466999 0)
(10.1578 -0.0477364 0)
(10.0368 -0.209413 0)
(10.1083 -0.3659 0)
(10.1423 -0.352748 0)
(10.1567 -0.298036 0)
(10.1697 -0.247624 0)
(10.182 -0.206793 0)
(10.1884 -0.174356 0)
(10.1867 -0.148993 0)
(10.1774 -0.129276 0)
(10.1619 -0.113752 0)
(10.1413 -0.101355 0)
(10.1168 -0.0913254 0)
(10.0893 -0.0831319 0)
(10.0597 -0.0763689 0)
(10.0287 -0.0707557 0)
(9.99681 -0.0661123 0)
(9.96459 -0.0622887 0)
(9.9327 -0.0595857 0)
(9.92866 0.765531 0)
(9.83924 0.742069 0)
(9.70533 0.52443 0)
(9.52634 0.348782 0)
(9.33184 0.227689 0)
(9.14059 0.146985 0)
(8.95878 0.0935809 0)
(8.78887 0.0579869 0)
(8.63226 0.034122 0)
(8.48958 0.0181049 0)
(8.36021 0.00744004 0)
(8.24333 0.000461977 0)
(8.13777 -0.00408591 0)
(8.04246 -0.0069396 0)
(7.95629 -0.00861765 0)
(7.8783 -0.0095558 0)
(7.8071 -0.0100379 0)
(7.74235 -0.0106496 0)
(0.00586949 -0.0117654 -8.62493e-19)
(0.0192488 -0.0211368 7.03673e-19)
(0.0337291 -0.022859 0)
(0.0466689 -0.0197938 0)
(0.0557343 -0.0142445 0)
(0.0604314 -0.00785559 -4.33538e-19)
(0.0608387 -0.00170442 0)
(0.0574099 0.00348177 0)
(0.0510852 0.0073956 0)
(0.0425662 0.0101454 0)
(0.03244 0.0120415 4.61611e-19)
(0.0211461 0.0133999 0)
(0.00894352 0.0144121 0)
(-0.0040241 0.0150675 0)
(-0.0177768 0.0154581 0)
(-0.0324052 0.0158444 4.26479e-19)
(-0.0479871 0.016359 0)
(-0.0646264 0.0170408 0)
(-0.0824299 0.0178893 0)
(-0.101495 0.0188886 0)
(-0.121902 0.0200154 0)
(-0.143709 0.0212416 0)
(-0.166952 0.0225358 0)
(-0.191638 0.0238638 2.21781e-19)
(-0.217752 0.0251932 -2.06071e-19)
(-0.245254 0.0264946 1.91866e-19)
(-0.274087 0.0277439 1.79036e-19)
(-0.304178 0.0289169 0)
(-0.335443 0.0299907 0)
(-0.367782 0.0309482 -1.47522e-19)
(-0.40109 0.0317818 -1.38985e-19)
(-0.435258 0.0324872 0)
(-0.470176 0.0330647 0)
(-0.505736 0.0335131 -1.17924e-19)
(-0.541835 0.0338341 0)
(-0.578378 0.0340308 0)
(-0.615278 0.0341128 1.02134e-19)
(-0.652457 0.0340938 0)
(-0.689848 0.0339963 9.37714e-20)
(-0.727391 0.0338447 1.80209e-19)
(-0.765031 0.0336679 0)
(-0.802717 0.0334906 0)
(-0.840486 0.0333267 0)
(-0.878346 0.033169 0)
(-0.916287 0.0330125 0)
(-0.954305 0.0328545 1.46307e-19)
(-0.992398 0.0326957 1.41937e-19)
(-1.03056 0.0325343 1.37842e-19)
(-1.06879 0.032371 0)
(-1.10708 0.0322043 -1.30384e-19)
(-1.14542 0.0320347 0)
(-1.1838 0.0318604 1.23762e-19)
(-1.22223 0.0316817 1.20723e-19)
(-1.26067 0.0314966 0)
(-1.29913 0.031305 0)
(-1.33759 0.0311041 0)
(-1.37604 0.0308941 1.10057e-19)
(-1.41445 0.0306723 0)
(-1.45281 0.0304385 0)
(-1.4911 0.0301898 0)
(-1.52929 0.0299264 0)
(-1.56735 0.0296457 0)
(-1.60527 0.0293476 0)
(-1.64302 0.0290294 0)
(-1.68055 0.0286913 0)
(-1.71785 0.0283308 -9.22819e-20)
(-1.75487 0.0279486 0)
(-1.79158 0.0275423 0)
(-1.82795 0.0271128 8.76642e-20)
(-1.86393 0.0266579 8.62308e-20)
(-1.89948 0.0261785 0)
(-1.93456 0.0256724 -8.35022e-20)
(-1.96913 0.0251408 8.22006e-20)
(-2.00314 0.0245817 0)
(-2.03655 0.0239966 -7.97073e-20)
(-2.06931 0.0233835 0)
(-2.10138 0.0227445 0)
(-2.1327 0.022078 7.62019e-20)
(-2.16322 0.0213856 0)
(-2.1929 0.020665 -7.3992e-20)
(-2.22168 0.0199184 0)
(-2.24951 0.0191437 7.18617e-20)
(-2.27635 0.0183424 7.08209e-20)
(-2.30213 0.0175119 6.97934e-20)
(-2.3268 0.0166535 1.37555e-19)
(-2.35031 0.0157641 -1.35541e-19)
(-2.37261 0.0148435 0)
(-2.39362 0.0138864 0)
(-2.41331 0.0128891 0)
(-2.43159 0.0118443 -1.27594e-19)
(-2.44842 0.010743 -1.25615e-19)
(-2.46373 0.00957716 1.23633e-19)
(-2.47744 0.00833967 0)
(-2.48946 0.0070283 -1.19648e-19)
(-2.4997 0.00565166 -1.17644e-19)
(-2.50806 0.00423904 -1.15633e-19)
(-2.51441 0.00283732 0)
(-2.51859 0.00149718 0)
(-2.52051 0.00029204 0)
(-2.52068 -0.000802274 -1.07319e-19)
(-2.51905 -0.00187032 0)
(-2.51564 -0.00293296 0)
(-2.51045 -0.00399973 1.00556e-19)
(-2.50345 -0.00507121 0)
(-2.49463 -0.00614617 0)
(-2.48396 -0.00722424 9.32512e-20)
(-2.47144 -0.00830363 0)
(-2.45705 -0.00938331 0)
(-2.44079 -0.010461 -8.52928e-20)
(-2.42266 -0.0115351 -8.24752e-20)
(-2.40267 -0.0126031 0)
(-2.38081 -0.0136627 7.65683e-20)
(-2.35712 -0.0147114 0)
(-2.33159 -0.0157464 -7.02718e-20)
(-2.30427 -0.0167652 0)
(-2.27518 -0.0177643 -6.35543e-20)
(-2.24435 -0.0187411 -6.00283e-20)
(-2.21183 -0.0196915 0)
(-2.17767 -0.0206128 0)
(-2.14191 -0.021501 0)
(-2.10461 -0.0223539 0)
(-2.06583 -0.0231677 0)
(-2.02566 -0.0239419 0)
(-1.98415 -0.0246726 0)
(-1.9414 -0.0253611 -2.73865e-20)
(-1.89747 -0.0260043 2.27138e-20)
(-1.85245 -0.0266051 0)
(-1.80642 -0.0271562 0)
(-1.75947 -0.0276555 0)
(-1.71169 -0.0280979 0)
(-1.66318 -0.0284868 -5.44814e-21)
(-1.61402 -0.0288184 0)
(-1.56431 -0.0290913 2.77697e-20)
(-1.51416 -0.0293026 -3.93554e-20)
(-1.46365 -0.0294522 0)
(-1.4129 -0.0295383 0)
(-1.36198 -0.0295599 0)
(-1.31101 -0.0295163 8.85118e-20)
(-1.26006 -0.0294072 1.01499e-19)
(-1.20924 -0.029237 0)
(-1.15863 -0.0290082 1.28295e-19)
(-1.10832 -0.028725 1.42097e-19)
(-1.05839 -0.0283886 -1.56163e-19)
(-1.00891 -0.0280013 0)
(-0.959933 -0.0275642 0)
(-0.911532 -0.0270809 -1.99903e-19)
(-0.863754 -0.026554 0)
(-0.816641 -0.0259886 0)
(-0.770228 -0.0253881 0)
(-0.724539 -0.0247588 0)
(-0.679589 -0.0241047 2.77719e-19)
(-0.63538 -0.0234334 2.94007e-19)
(-0.591907 -0.0227509 0)
(-0.54915 -0.0220666 3.27339e-19)
(-0.507075 -0.0213864 0)
(-0.465639 -0.0207199 0)
(-0.424785 -0.0200762 3.79472e-19)
(-0.384441 -0.0194675 0)
(-0.34452 -0.0189014 4.16029e-19)
(-0.304927 -0.0183909 0)
(-0.265548 -0.0179501 0)
(-0.226257 -0.0175903 4.74861e-19)
(-0.186926 -0.0173201 0)
(-0.147381 -0.0171721 5.18097e-19)
(-0.107454 -0.0171849 0)
(-0.067032 -0.0173635 0)
(-0.0260199 -0.0176467 0)
(0.0155849 -0.017829 -6.16081e-19)
(0.0570449 -0.0176421 0)
(0.098839 -0.0173887 6.04088e-19)
(0.142089 -0.0174228 0)
(0.187036 -0.0177053 0)
(0.234069 -0.0181801 0)
(0.283461 -0.0187814 0)
(0.335393 -0.0194385 0)
(0.389522 -0.0200055 0)
(0.446061 -0.0202216 0)
(0.500303 -0.019528 -1.02684e-18)
(0.560868 -0.0166048 0)
(0.570312 0.00105907 0)
(0.00767876 -0.0404758 1.96239e-18)
(0.0180286 -0.0472187 -1.14702e-18)
(0.0227871 -0.0385198 0)
(0.0238 -0.0266121 3.67267e-19)
(0.0218706 -0.0141113 0)
(0.0174038 -0.00210519 1.48057e-19)
(0.0108173 0.00870411 -2.84003e-19)
(0.00227527 0.0178668 -2.76947e-19)
(-0.00826 0.0252382 0)
(-0.020734 0.030986 -2.59469e-19)
(-0.0350636 0.0354475 -1.25198e-19)
(-0.0511458 0.0390046 0)
(-0.0688967 0.0419968 0)
(-0.0882135 0.0446829 0)
(-0.10896 0.0472641 0)
(-0.13106 0.0498934 -1.04438e-19)
(-0.154497 0.0526582 0)
(-0.179256 0.0555841 1.93993e-19)
(-0.205311 0.0586518 0)
(-0.232627 0.0618159 0)
(-0.261155 0.0650187 -1.73112e-19)
(-0.29083 0.0681975 0)
(-0.321577 0.0712909 1.60026e-19)
(-0.353304 0.0742417 -7.70016e-20)
(-0.385914 0.0770001 7.40036e-20)
(-0.419302 0.0795259 -7.1134e-20)
(-0.453362 0.0817917 -6.83984e-20)
(-0.487988 0.0837833 0)
(-0.523079 0.085492 0)
(-0.55854 0.0869094 6.10056e-20)
(-0.594284 0.0880314 -5.8644e-20)
(-0.630235 0.0888683 0)
(-0.666323 0.0894409 0)
(-0.702488 0.089773 5.30264e-20)
(-0.738684 0.0898898 0)
(-0.774875 0.0898159 0)
(-0.811037 0.0895779 -4.82299e-20)
(-0.847158 0.0892009 0)
(-0.883235 0.0887134 4.53593e-20)
(-0.919266 0.088146 -8.85688e-20)
(-0.955253 0.0875326 0)
(-0.991191 0.086903 0)
(-1.02707 0.0862735 -1.63753e-19)
(-1.06289 0.0856435 -1.59871e-19)
(-1.09863 0.0850123 -1.56195e-19)
(-1.13429 0.0843779 7.61953e-20)
(-1.16987 0.0837398 -7.48563e-20)
(-1.20537 0.0830961 -2.19523e-19)
(-1.24078 0.082446 1.43239e-19)
(-1.2761 0.0817868 7.03456e-20)
(-1.31132 0.0811173 0)
(-1.34644 0.0804346 -6.76661e-20)
(-1.38144 0.0797372 6.60935e-20)
(-1.41632 0.0790217 0)
(-1.45106 0.0782862 0)
(-1.48565 0.0775267 0)
(-1.52007 0.0767412 -6.18683e-20)
(-1.5543 0.075926 0)
(-1.58833 0.075079 1.19373e-19)
(-1.62213 0.0741962 0)
(-1.65568 0.0732763 1.15595e-19)
(-1.68897 0.0723157 0)
(-1.72195 0.0713132 -1.12055e-19)
(-1.7546 0.070265 0)
(-1.78691 0.0691704 1.08722e-19)
(-1.81883 0.0680262 -5.34191e-20)
(-1.85033 0.0668323 0)
(-1.8814 0.065586 -1.04054e-19)
(-1.91198 0.0642877 -5.14232e-20)
(-1.94205 0.0629349 -5.06972e-20)
(-1.97157 0.0615286 0)
(-2.00051 0.0600663 -4.90337e-20)
(-2.02883 0.0585492 -4.8605e-20)
(-2.0565 0.0569754 0)
(-2.08346 0.0553464 4.72694e-20)
(-2.1097 0.0536608 -9.30036e-20)
(-2.13516 0.0519211 0)
(-2.1598 0.0501263 -4.53318e-20)
(-2.18359 0.0482786 0)
(-2.20649 0.0463764 1.32018e-19)
(-2.22844 0.0444223 0)
(-2.24941 0.0424153 -1.283e-19)
(-2.26936 0.0403579 -4.22057e-20)
(-2.28824 0.0382488 4.14307e-20)
(-2.30601 0.0360913 8.16446e-20)
(-2.32264 0.0338845 -8.04263e-20)
(-2.33806 0.0316315 0)
(-2.35225 0.0293309 0)
(-2.36515 0.0269836 0)
(-2.37674 0.0245873 2.26838e-19)
(-2.38697 0.0221389 7.4387e-20)
(-2.39581 0.0196352 -7.30916e-20)
(-2.40323 0.0170721 0)
(-2.40922 0.0144443 -7.0409e-20)
(-2.41377 0.0117469 6.91115e-20)
(-2.41691 0.00898708 6.77537e-20)
(-2.41869 0.00619763 0)
(-2.41921 0.00344373 0)
(-2.41859 0.000815953 0)
(-2.4164 -0.00169942 6.20319e-20)
(-2.41256 -0.00417626 0)
(-2.40701 -0.00663175 -1.18162e-19)
(-2.39973 -0.00907459 -1.7248e-19)
(-2.39067 -0.0115047 1.11904e-19)
(-2.37983 -0.0139186 0)
(-2.36718 -0.0163124 5.28688e-20)
(-2.35272 -0.0186806 0)
(-2.33644 -0.0210188 9.86073e-20)
(-2.31833 -0.0233214 -4.77867e-20)
(-2.29839 -0.0255837 -4.60203e-20)
(-2.27664 -0.0277998 0)
(-2.25308 -0.0299645 -1.25942e-19)
(-2.22772 -0.0320719 8.0354e-20)
(-2.20059 -0.0341163 3.78992e-20)
(-2.17172 -0.0360922 0)
(-2.14113 -0.0379939 3.38568e-20)
(-2.10887 -0.0398164 9.61257e-20)
(-2.07497 -0.0415538 0)
(-2.03949 -0.0432009 5.58749e-20)
(-2.00248 -0.0447517 5.15227e-20)
(-1.964 -0.0462018 4.70957e-20)
(-1.92411 -0.047546 0)
(-1.88288 -0.0487829 0)
(-1.84039 -0.0499091 0)
(-1.79672 -0.0509275 -1.48841e-20)
(-1.75196 -0.0518417 -1.14112e-20)
(-1.70618 -0.0526543 0)
(-1.65948 -0.053344 -1.42521e-20)
(-1.61194 -0.0539144 -9.34264e-21)
(-1.56364 -0.0543764 0)
(-1.51468 -0.0547296 1.80386e-21)
(-1.46516 -0.0549666 1.12184e-20)
(-1.41516 -0.0550913 -1.18821e-20)
(-1.36479 -0.0551019 -1.44646e-20)
(-1.31413 -0.0550018 0)
(-1.26329 -0.0547918 0)
(-1.21235 -0.0544752 0)
(-1.16142 -0.0540542 -3.72293e-20)
(-1.11056 -0.0535336 3.98043e-20)
(-1.05987 -0.0529209 9.21379e-20)
(-1.00944 -0.0522259 -5.22819e-20)
(-0.959343 -0.051458 5.48456e-20)
(-0.909653 -0.0506258 6.21392e-20)
(-0.860435 -0.0497349 0)
(-0.811746 -0.0487933 0)
(-0.763637 -0.0478077 -7.43166e-20)
(-0.71615 -0.0467879 0)
(-0.669319 -0.0457411 0)
(-0.623166 -0.0446786 1.78454e-19)
(-0.577708 -0.0436089 0)
(-0.532944 -0.0425445 9.70644e-20)
(-0.488868 -0.041493 -1.03096e-19)
(-0.445459 -0.0404684 0)
(-0.402684 -0.0394804 1.0954e-19)
(-0.360496 -0.0385431 0)
(-0.318833 -0.037664 0)
(-0.27762 -0.0368595 -1.2227e-19)
(-0.236767 -0.036139 2.50249e-19)
(-0.196167 -0.0355154 -1.29075e-19)
(-0.155693 -0.0349974 0)
(-0.115208 -0.0346053 0)
(-0.0745575 -0.0343445 1.37539e-19)
(-0.0335725 -0.0342244 0)
(0.00792433 -0.0342474 1.43378e-19)
(0.0499177 -0.034345 0)
(0.0926524 -0.0345105 0)
(0.136536 -0.0347775 0)
(0.181927 -0.0350611 1.45322e-19)
(0.229227 -0.0354054 0)
(0.278682 -0.0360265 -1.45289e-19)
(0.330356 -0.0370008 0)
(0.384384 -0.0382548 0)
(0.440931 -0.0397018 2.90597e-19)
(0.500083 -0.0412299 -2.91105e-19)
(0.561815 -0.0426971 0)
(0.625728 -0.0438608 0)
(0.691568 -0.0441941 0)
(0.75604 -0.042857 8.93967e-19)
(0.82372 -0.0367427 0)
(0.864349 -0.0153627 -6.24472e-19)
(0.00327901 -0.059633 -7.40276e-22)
(0.00457487 -0.0522716 1.15269e-18)
(0.00111879 -0.0342147 0)
(-0.00498291 -0.0164343 -4.91323e-19)
(-0.0130064 0.000103158 0)
(-0.0225598 0.0152253 0)
(-0.0334606 0.0288072 5.57917e-23)
(-0.0456849 0.0407579 1.52112e-19)
(-0.0592931 0.0510592 1.45245e-19)
(-0.0743613 0.0598122 1.40051e-19)
(-0.0909439 0.0672381 0)
(-0.109057 0.0736295 0)
(-0.128678 0.0792912 -1.27882e-19)
(-0.149753 0.0844993 -2.48683e-19)
(-0.172201 0.0894681 2.41813e-19)
(-0.195933 0.0943345 0)
(-0.220852 0.0991707 2.28425e-19)
(-0.246857 0.103994 -1.11023e-19)
(-0.273845 0.108778 0)
(-0.301712 0.113472 2.08933e-19)
(-0.330353 0.118012 1.014e-19)
(-0.359666 0.12233 -1.96403e-19)
(-0.389551 0.126363 -9.52531e-20)
(-0.419914 0.130058 0)
(-0.450667 0.133372 1.78669e-19)
(-0.481729 0.136275 1.73126e-19)
(-0.513033 0.138747 0)
(-0.544512 0.140782 1.62644e-19)
(-0.57611 0.142385 0)
(-0.607776 0.143576 1.5288e-19)
(-0.639476 0.144382 7.42158e-20)
(-0.671194 0.144833 0)
(-0.702914 0.144965 0)
(-0.73463 0.144814 0)
(-0.766336 0.14442 0)
(-0.798033 0.14382 0)
(-0.829723 0.143052 0)
(-0.861413 0.14215 1.22304e-19)
(-0.893107 0.141146 -1.79077e-19)
(-0.924809 0.140072 0)
(-0.95652 0.138953 0)
(-0.988234 0.137811 0)
(-1.01994 0.136657 1.4951e-22)
(-1.05164 0.135498 1.06762e-19)
(-1.08332 0.134336 2.08983e-19)
(-1.11498 0.133169 -2.0479e-19)
(-1.14662 0.131998 -1.00308e-19)
(-1.17822 0.13082 9.85504e-20)
(-1.20978 0.129633 -1.68361e-22)
(-1.2413 0.128434 9.47687e-20)
(-1.27278 0.127219 0)
(-1.30419 0.125984 9.14269e-20)
(-1.33553 0.124726 -1.75517e-22)
(-1.3668 0.123438 0)
(-1.39797 0.122118 0)
(-1.42903 0.120761 -8.54305e-20)
(-1.45997 0.119362 0)
(-1.49077 0.117916 0)
(-1.52141 0.11642 8.12485e-20)
(-1.55187 0.114869 1.60341e-19)
(-1.58213 0.11326 -7.91269e-20)
(-1.61217 0.111588 0)
(-1.64196 0.109851 7.67802e-20)
(-1.67148 0.108045 0)
(-1.7007 0.106167 7.42056e-20)
(-1.7296 0.104215 7.34698e-20)
(-1.75814 0.102188 -1.44496e-19)
(-1.7863 0.100082 -7.10525e-20)
(-1.81403 0.0978966 0)
(-1.84133 0.0956306 1.38425e-19)
(-1.86813 0.0932834 0)
(-1.89443 0.0908536 2.01976e-19)
(-1.92017 0.0883414 1.32655e-19)
(-1.94532 0.0857458 1.30785e-19)
(-1.96985 0.0830678 -1.28937e-19)
(-1.99372 0.0803071 1.90796e-19)
(-2.01689 0.0774653 0)
(-2.03932 0.0745429 0)
(-2.06098 0.0715412 -1.21709e-19)
(-2.08181 0.0684607 -1.8001e-19)
(-2.10178 0.0653033 0)
(-2.12086 0.0620697 5.82968e-20)
(-2.13899 0.058762 0)
(-2.15614 0.0553811 -1.69373e-19)
(-2.17227 0.0519298 -1.62823e-22)
(-2.18733 0.0484094 1.48452e-22)
(-2.20129 0.0448228 1.07526e-19)
(-2.2141 0.0411716 0)
(-2.22572 0.037458 -1.03927e-19)
(-2.23612 0.0336839 -8.56002e-23)
(-2.24528 0.0298515 0)
(-2.25315 0.0259653 0)
(-2.25972 0.0220327 0)
(-2.26496 0.0180645 9.46711e-20)
(-2.26886 0.0140767 0)
(-2.27141 0.0100915 0)
(-2.27259 0.00613194 0)
(-2.27234 0.00221092 0)
(-2.27061 -0.00169777 0)
(-2.26731 -0.00561384 8.26164e-20)
(-2.2624 -0.00952545 0)
(-2.25584 -0.0134256 7.81541e-20)
(-2.2476 -0.0173091 7.59284e-20)
(-2.23766 -0.0211695 -7.36679e-20)
(-2.22598 -0.0249996 0)
(-2.21257 -0.0287915 -6.9038e-20)
(-2.1974 -0.032537 0)
(-2.18048 -0.0362277 -6.4258e-20)
(-2.16179 -0.0398551 6.18102e-20)
(-2.14133 -0.0434105 1.78662e-19)
(-2.11913 -0.0468849 0)
(-2.09518 -0.0502694 1.63489e-19)
(-2.0695 -0.0535547 5.24689e-20)
(-2.04211 -0.0567318 0)
(-2.01305 -0.0597914 9.35514e-20)
(-1.98234 -0.0627249 8.81653e-20)
(-1.95002 -0.0655237 -1.23544e-19)
(-1.91613 -0.0681793 0)
(-1.88073 -0.0706832 -3.52293e-20)
(-1.84386 -0.0730271 -3.23771e-20)
(-1.80558 -0.0752036 -8.96905e-20)
(-1.76596 -0.0772067 0)
(-1.72507 -0.0790318 0)
(-1.68298 -0.0806759 0)
(-1.63978 -0.0821377 -1.90674e-20)
(-1.59555 -0.0834217 0)
(-1.55036 -0.0845373 0)
(-1.50432 -0.0854682 8.70537e-21)
(-1.45749 -0.0862043 5.68569e-21)
(-1.40996 -0.0867613 0)
(-1.36184 -0.0871436 0)
(-1.31319 -0.0873461 -6.7508e-21)
(-1.26412 -0.0873709 0)
(-1.21471 -0.0872191 1.87591e-20)
(-1.16506 -0.0868944 2.32037e-20)
(-1.11525 -0.0864011 0)
(-1.06538 -0.085745 0)
(-1.01552 -0.0849322 -4.08278e-20)
(-0.965759 -0.0839715 -1.49114e-21)
(-0.916175 -0.0828747 -1.47653e-21)
(-0.866845 -0.0816565 0)
(-0.817841 -0.080331 -1.28395e-19)
(-0.76923 -0.078912 0)
(-0.721069 -0.0774103 0)
(-0.673408 -0.0758394 0)
(-0.626287 -0.0742113 8.60564e-20)
(-0.57974 -0.0725412 0)
(-0.533792 -0.0708416 -1.8941e-19)
(-0.488457 -0.0691296 -1.00698e-19)
(-0.44374 -0.0674197 0)
(-0.399634 -0.0657299 -1.09789e-19)
(-0.356119 -0.0640736 0)
(-0.313165 -0.0624703 0)
(-0.270729 -0.0609361 -3.6504e-19)
(-0.228754 -0.0594908 2.50561e-19)
(-0.187169 -0.0581475 0)
(-0.145885 -0.0569287 2.65261e-19)
(-0.104803 -0.05585 -1.36786e-19)
(-0.0638064 -0.0549302 0)
(-0.0227573 -0.0541813 0)
(0.0184792 -0.0536199 0)
(0.0600261 -0.0532442 -4.41849e-19)
(0.102087 -0.0530725 0)
(0.144893 -0.0531074 -1.49832e-19)
(0.188671 -0.0533615 0)
(0.233675 -0.053862 0)
(0.280144 -0.0546018 0)
(0.32837 -0.0555437 0)
(0.37869 -0.0567253 0)
(0.431359 -0.0582359 0)
(0.486481 -0.0601038 -3.08754e-19)
(0.544159 -0.0622771 0)
(0.604475 -0.0646538 -1.56369e-19)
(0.667443 -0.0670823 4.71325e-19)
(0.73297 -0.0693492 0)
(0.80067 -0.0710993 0)
(0.870241 -0.0716548 -3.22548e-19)
(0.939269 -0.069861 -3.28139e-19)
(1.01163 -0.0625749 3.33472e-19)
(1.069 -0.0417143 3.44639e-19)
(-0.00292542 -0.0588246 -2.97484e-18)
(-0.00893348 -0.0399438 -1.38283e-18)
(-0.0177995 -0.0172342 -5.20374e-19)
(-0.028585 0.00359015 -1.85327e-19)
(-0.0405455 0.0225252 0)
(-0.053361 0.0397774 2.62203e-19)
(-0.0670098 0.0554299 -1.19468e-19)
(-0.081553 0.069507 0)
(-0.0970772 0.0820517 -1.06646e-19)
(-0.113674 0.0931653 0)
(-0.131417 0.103014 1.98557e-19)
(-0.150346 0.111811 0)
(-0.170457 0.119779 9.38161e-20)
(-0.19171 0.127126 1.82632e-19)
(-0.214033 0.134019 -1.7778e-19)
(-0.237334 0.14057 0)
(-0.261505 0.146843 -1.68317e-19)
(-0.286434 0.152854 0)
(-0.31201 0.158588 0)
(-0.338126 0.164008 -1.54577e-19)
(-0.364683 0.169065 0)
(-0.391594 0.173712 5.03536e-23)
(-0.418779 0.177908 0)
(-0.446171 0.18162 0)
(-0.473714 0.184829 -3.70815e-23)
(-0.501362 0.187526 -1.295e-19)
(-0.529079 0.189714 -1.25706e-19)
(-0.556838 0.191404 -1.22119e-19)
(-0.584624 0.192618 0)
(-0.612432 0.193393 -2.30737e-19)
(-0.640261 0.193771 0)
(-0.66811 0.193794 -1.09254e-19)
(-0.695984 0.193505 0)
(-0.723889 0.192945 0)
(-0.751832 0.192157 1.01149e-19)
(-0.77982 0.191179 0)
(-0.807861 0.190047 -9.63825e-20)
(-0.835961 0.188794 -3.69898e-23)
(-0.864122 0.187449 1.8417e-19)
(-0.892346 0.186037 -1.80108e-19)
(-0.92063 0.184578 0)
(-0.94897 0.183089 0)
(-0.977359 0.181581 -8.44791e-20)
(-1.00579 0.18006 0)
(-1.03426 0.17853 -8.12854e-20)
(-1.06275 0.17699 7.97345e-20)
(-1.09127 0.175441 7.82454e-20)