# vtk DataFile Version 2.0
track0
ASCII
DATASET POLYDATA
POINTS 10930 double
-0.0205 0.001 1e-05
-0.0202034 0.00100022 1e-05
-0.0199069 0.00100067 1e-05
-0.0196103 0.00100132 1e-05
-0.0193137 0.00100216 1e-05
-0.0190172 0.0010032 1e-05
-0.0187132 0.00100461 1e-05
-0.0184093 0.00100572 1e-05
-0.0181054 0.0010068 1e-05
-0.0178015 0.00100784 1e-05
-0.0174976 0.00100885 1e-05
-0.0172058 0.00101 1e-05
-0.016914 0.00101081 1e-05
-0.0166222 0.00101159 1e-05
-0.0163305 0.00101234 1e-05
-0.0160387 0.00101307 1e-05
-0.0157586 0.00101393 1e-05
-0.0154784 0.00101461 1e-05
-0.0151983 0.00101533 1e-05
-0.0149182 0.00101609 1e-05
-0.0146381 0.00101689 1e-05
-0.0143692 0.00101781 1e-05
-0.0141002 0.00101866 1e-05
-0.0138313 0.00101956 1e-05
-0.0135624 0.00102052 1e-05
-0.0132934 0.00102152 1e-05
-0.0130366 0.00102258 1e-05
-0.0127798 0.00102363 1e-05
-0.012523 0.00102472 1e-05
-0.0122662 0.00102584 1e-05
-0.0120515 0.00102682 1e-05
-0.0120417 0.00102686 1e-05
-0.0120319 0.00102691 1e-05
-0.0120221 0.00102695 1e-05
-0.0120123 0.001027 1e-05
-0.0120025 0.00102705 1e-05
-0.0117547 0.00102821 1e-05
-0.0115068 0.00102939 1e-05
-0.0112589 0.0010306 1e-05
-0.0110111 0.00103183 1e-05
-0.0107632 0.00103308 1e-05
-0.0105252 0.0010343 1e-05
-0.0102873 0.00103554 1e-05
-0.0100493 0.0010368 1e-05
-0.00981133 0.00103807 1e-05
-0.00957337 0.00103935 1e-05
-0.00934491 0.00104058 1e-05
-0.00911645 0.00104183 1e-05
-0.008888 0.00104309 1e-05
-0.00865954 0.00104436 1e-05
-0.00843108 0.00104563 1e-05
-0.00821175 0.00104684 1e-05
-0.00799242 0.00104807 1e-05
-0.00777309 0.0010493 1e-05
-0.00755376 0.00105054 1e-05
-0.00733443 0.00105177 1e-05
-0.00712387 0.00105294 1e-05
-0.0069133 0.00105413 1e-05
-0.00670273 0.00105531 1e-05
-0.00649217 0.0010565 1e-05
-0.0062816 0.00105769 1e-05
-0.00607944 0.0010588 1e-05
-0.00587729 0.00105993 1e-05
-0.00567514 0.00106106 1e-05
-0.00547298 0.00106218 1e-05
-0.00527083 0.00106331 1e-05
-0.00507675 0.00106436 1e-05
-0.00488267 0.00106543 1e-05
-0.0046886 0.00106649 1e-05
-0.00449452 0.00106755 1e-05
-0.00430044 0.0010686 1e-05
-0.00411412 0.00106959 1e-05
-0.0039278 0.00107058 1e-05
-0.00374147 0.00107157 1e-05
-0.00355515 0.00107256 1e-05
-0.00336883 0.00107353 1e-05
-0.00318995 0.00107445 1e-05
-0.00301107 0.00107537 1e-05
-0.00283219 0.00107629 1e-05
-0.00265331 0.00107719 1e-05
-0.00247443 0.00107809 1e-05
-0.0023027 0.00107893 1e-05
-0.00213097 0.00107977 1e-05
-0.00195924 0.0010806 1e-05
-0.0017875 0.00108142 1e-05
-0.00161577 0.00108223 1e-05
-0.0014509 0.00108298 1e-05
-0.00128603 0.00108373 1e-05
-0.00112116 0.00108446 1e-05
-0.000956289 0.00108518 1e-05
-0.000791418 0.00108588 1e-05
-0.000633135 0.00108653 1e-05
-0.000474851 0.00108716 1e-05
-0.000316567 0.00108777 1e-05
-0.000158283 0.00108836 1e-05
0 0.00108892 1e-05
0.000105677 0.00108927 1e-05
0.000211355 0.00108962 1e-05
0.000317032 0.00108995 1e-05
0.00042271 0.00109026 1e-05
0.000528387 0.00109057 1e-05
0.000634886 0.00109085 1e-05
0.000741385 0.00109113 1e-05
0.000847885 0.0010914 1e-05
0.000954384 0.00109165 1e-05
0.00106088 0.0010919 1e-05
0.00116821 0.00109212 1e-05
0.00127554 0.00109235 1e-05
0.00138286 0.00109256 1e-05
0.00149019 0.00109276 1e-05
0.00159752 0.00109295 1e-05
0.00170568 0.00109312 1e-05
0.00181384 0.00109328 1e-05
0.001922 0.00109344 1e-05
0.00203016 0.00109358 1e-05
0.00213833 0.00109371 1e-05
0.00224733 0.00109382 1e-05
0.00235633 0.00109394 1e-05
0.00246533 0.00109404 1e-05
0.00257434 0.00109413 1e-05
0.00268334 0.00109422 1e-05
0.00279319 0.00109428 1e-05
0.00290304 0.00109435 1e-05
0.00301289 0.00109441 1e-05
0.00312274 0.00109446 1e-05
0.00323259 0.00109451 1e-05
0.00334329 0.00109454 1e-05
0.003454 0.00109457 1e-05
0.0035647 0.0010946 1e-05
0.0036754 0.00109462 1e-05
0.00378611 0.00109464 1e-05
0.00389767 0.00109464 1e-05
0.00400924 0.00109464 1e-05
0.0041208 0.00109464 1e-05
0.00423237 0.00109463 1e-05
0.00434393 0.00109461 1e-05
0.00445636 0.00109459 1e-05
0.00456879 0.00109456 1e-05
0.00468123 0.00109453 1e-05
0.00479366 0.0010945 1e-05
0.00490609 0.00109445 1e-05
0.0050194 0.0010944 1e-05
0.0051327 0.00109435 1e-05
0.00524601 0.00109429 1e-05
0.00535931 0.00109423 1e-05
0.00547262 0.00109416 1e-05
0.00554953 0.00109411 1e-05
0.00562644 0.00109406 1e-05
0.00570335 0.00109401 1e-05
0.00578027 0.00109395 1e-05
0.00585559 0.0010939 1e-05
0.00589319 0.00109387 1e-05
0.00593078 0.00109384 1e-05
0.00596837 0.00109381 1e-05
0.00600596 0.00109378 1e-05
0.00604356 0.00109374 1e-05
0.00615863 0.00109364 1e-05
0.00627371 0.00109354 1e-05
0.00638878 0.00109343 1e-05
0.00650386 0.00109332 1e-05
0.00661893 0.0010932 1e-05
0.0067349 0.00109308 1e-05
0.00685087 0.00109295 1e-05
0.00696684 0.00109282 1e-05
0.00708281 0.00109268 1e-05
0.00719878 0.00109254 1e-05
0.00731565 0.00109238 1e-05
0.00743252 0.00109223 1e-05
0.00754939 0.00109207 1e-05
0.00766626 0.00109191 1e-05
0.00778313 0.00109174 1e-05
0.00790091 0.00109155 1e-05
0.00801869 0.00109138 1e-05
0.00813647 0.00109119 1e-05
0.00825425 0.00109101 1e-05
0.00837203 0.00109081 1e-05
0.00849073 0.00109059 1e-05
0.00860942 0.00109039 1e-05
0.00872812 0.00109018 1e-05
0.00884682 0.00108997 1e-05
0.00896551 0.00108975 1e-05
0.00908513 0.00108949 1e-05
0.00920475 0.00108926 1e-05
0.00932437 0.00108903 1e-05
0.00944398 0.00108878 1e-05
0.0095636 0.00108854 1e-05
0.00968415 0.00108825 1e-05
0.0098047 0.00108799 1e-05
0.00992525 0.00108772 1e-05
0.0100458 0.00108745 1e-05
0.0101663 0.00108717 1e-05
0.0102878 0.00108685 1e-05
0.0104093 0.00108656 1e-05
0.0105308 0.00108626 1e-05
0.0106523 0.00108596 1e-05
0.0107738 0.00108565 1e-05
0.0108962 0.00108529 1e-05
0.0110186 0.00108496 1e-05
0.0111411 0.00108463 1e-05
0.0112635 0.00108429 1e-05
0.0113859 0.00108395 1e-05
0.0115093 0.00108355 1e-05
0.0116327 0.00108319 1e-05
0.0117561 0.00108283 1e-05
0.0118795 0.00108245 1e-05
0.0120028 0.00108207 1e-05
0.0121272 0.00108164 1e-05
0.0122515 0.00108124 1e-05
0.0123759 0.00108083 1e-05
0.0125002 0.00108042 1e-05
0.0126245 0.00108 1e-05
0.0127498 0.00107952 1e-05
0.0128752 0.00107908 1e-05
0.0130005 0.00107863 1e-05
0.0131258 0.00107818 1e-05
0.0132511 0.00107771 1e-05
0.0133774 0.00107719 1e-05
0.0135036 0.0010767 1e-05
0.0136299 0.0010762 1e-05
0.0137562 0.00107571 1e-05
0.0138825 0.00107519 1e-05
0.0140098 0.00107462 1e-05
0.014137 0.00107408 1e-05
0.0142643 0.00107354 1e-05
0.0143915 0.00107299 1e-05
0.0145188 0.00107243 1e-05
0.0146471 0.00107181 1e-05
0.0147753 0.00107122 1e-05
0.0149036 0.00107062 1e-05
0.0150318 0.00107002 1e-05
0.0151601 0.0010694 1e-05
0.0152893 0.00106874 1e-05
0.0154186 0.00106808 1e-05
0.0155478 0.00106744 1e-05
0.0156771 0.00106678 1e-05
0.0158063 0.0010661 1e-05
0.0159366 0.00106538 1e-05
0.0160668 0.00106467 1e-05
0.0161971 0.00106396 1e-05
0.0163274 0.00106325 1e-05
0.0164576 0.00106251 1e-05
0.0165889 0.00106173 1e-05
0.0167201 0.00106096 1e-05
0.0168514 0.00106018 1e-05
0.0169827 0.0010594 1e-05
0.0171139 0.0010586 1e-05
0.0172462 0.00105776 1e-05
0.0173785 0.00105692 1e-05
0.0175108 0.00105608 1e-05
0.0176431 0.00105523 1e-05
0.0177754 0.00105435 1e-05
0.0179087 0.00105345 1e-05
0.018042 0.00105254 1e-05
0.0181753 0.00105162 1e-05
0.0183087 0.00105069 1e-05
0.018442 0.00104975 1e-05
0.0185763 0.00104877 1e-05
0.0187107 0.00104779 1e-05
0.018845 0.00104679 1e-05
0.0189794 0.00104579 1e-05
0.0191137 0.00104476 1e-05
0.0192491 0.00104371 1e-05
0.0193845 0.00104265 1e-05
0.0195199 0.00104157 1e-05
0.0196553 0.00104048 1e-05
0.0197907 0.00103937 1e-05
0.0199272 0.00103825 1e-05
0.0200636 0.0010371 1e-05
0.0202001 0.00103593 1e-05
0.0203365 0.00103475 1e-05
0.020473 0.00103356 1e-05
0.0206105 0.00103236 1e-05
0.020748 0.00103112 1e-05
0.0208855 0.00102986 1e-05
0.021023 0.00102859 1e-05
0.0211606 0.00102731 1e-05
0.0212991 0.00102602 1e-05
0.0214377 0.00102469 1e-05
0.0215763 0.00102334 1e-05
0.0217149 0.00102197 1e-05
0.0218535 0.00102059 1e-05
0.0219931 0.00101921 1e-05
0.0221328 0.00101779 1e-05
0.0222724 0.00101633 1e-05
0.0224121 0.00101486 1e-05
0.0225517 0.00101339 1e-05
0.0226925 0.00101191 1e-05
0.0228332 0.00101039 1e-05
0.022974 0.00100883 1e-05
0.0231147 0.00100726 1e-05
0.0232555 0.00100569 1e-05
0.0233973 0.0010041 1e-05
0.0235391 0.00100248 1e-05
0.023681 0.00100082 1e-05
0.0238228 0.00099914 1e-05
0.0239647 0.000997459 1e-05
0.0241076 0.000995768 1e-05
0.0242505 0.000994033 1e-05
0.0243935 0.000992264 1e-05
0.0245364 0.000990478 1e-05
0.0246794 0.000988686 1e-05
0.0248234 0.000986884 1e-05
0.0249675 0.000985035 1e-05
0.0251115 0.000983155 1e-05
0.0252556 0.000981256 1e-05
0.0253996 0.000979348 1e-05
0.0255448 0.000977427 1e-05
0.02569 0.000975458 1e-05
0.0258351 0.000973461 1e-05
0.0259803 0.000971444 1e-05
0.0261255 0.000969412 1e-05
0.0262718 0.000967368 1e-05
0.0264181 0.000965274 1e-05
0.0265644 0.000963156 1e-05
0.0267107 0.000961017 1e-05
0.026857 0.000958859 1e-05
0.0270044 0.000956687 1e-05
0.0271519 0.000954464 1e-05
0.0272993 0.00095222 1e-05
0.0274467 0.000949955 1e-05
0.0275942 0.000947668 1e-05
0.0277428 0.000945361 1e-05
0.0278914 0.000943007 1e-05
0.0280399 0.000940631 1e-05
0.0281885 0.000938232 1e-05
0.0283371 0.000935811 1e-05
0.0284869 0.000933363 1e-05
0.0286366 0.000930874 1e-05
0.0287863 0.000928361 1e-05
0.0289361 0.000925826 1e-05
0.0290858 0.000923266 1e-05
0.0292367 0.000920673 1e-05
0.0293876 0.000918044 1e-05
0.0295385 0.00091539 1e-05
0.0296894 0.000912711 1e-05
0.0298403 0.000910007 1e-05
0.0299804 0.000907478 1e-05
0.0301205 0.000904921 1e-05
0.0302605 0.000902343 1e-05
0.0304006 0.000899742 1e-05
0.0305315 0.00089729 1e-05
0.0305454 0.000897029 1e-05
0.0305592 0.000896768 1e-05
0.030573 0.000896506 1e-05
0.0305869 0.000896244 1e-05
0.0306007 0.000895982 1e-05
0.030754 0.000893077 1e-05
0.0309072 0.000890144 1e-05
0.0310605 0.000887183 1e-05
0.0312138 0.000884195 1e-05
0.031367 0.00088118 1e-05
0.0315215 0.000878119 1e-05
0.0316759 0.000875024 1e-05
0.0318304 0.0008719 1e-05
0.0319848 0.000868748 1e-05
0.0321393 0.000865565 1e-05
0.0322949 0.000862342 1e-05
0.0324506 0.000859077 1e-05
0.0326062 0.000855782 1e-05
[...]
POINT_DATA 10930
 FIELD attributes 2
p 1 10930 float
-6.00878 -6.00433 -5.99683 -5.98924 -5.98156 -5.96925 -5.97568 -5.98732 -5.99896 -6.01061 -6.03614 -6.05592 -6.08879 -6.12167 -6.15454 -6.19426 -6.20889 -6.23472 -6.26055 -6.28639 -6.31747 -6.33662 -6.36191 -6.38722 -6.41254 -6.44042 -6.46438 -6.4904 -6.51643 -6.54247 -6.56424 -6.56524 -6.56623 -6.56722 -6.56822 -6.56918 -6.59244 -6.61569 -6.63894 -6.6622 -6.68461 -6.70477 -6.72439 -6.74401 -6.76364 -6.78191 -6.80018 -6.81763 -6.83508 -6.85253 -6.86845 -6.88573 -6.90203 -6.91834 -6.93465 -6.94937 -6.96592 -6.98142 -6.99693 -7.01244 -7.02638 -7.0423 -7.05722 -7.07214 -7.08707 -7.10053 -7.11603 -7.13065 -7.14527 -7.15989 -7.17321 -7.18856 -7.20322 -7.21788 -7.23254 -7.24608 -7.26157 -7.27659 -7.29161 -7.30662 -7.32063 -7.33654 -7.35237 -7.36819 -7.38401 -7.39884 -7.41524 -7.43177 -7.4483 -7.46483 -7.47983 -7.49475 -7.50899 -7.52324 -7.5375 -7.54934 -7.55838 -7.56561 -7.57284 -7.58007 -7.58559 -7.58967 -7.59155 -7.59342 -7.5953 -7.59626 -7.59816 -7.59912 -7.60008 -7.60105 -7.60198 -7.60536 -7.60699 -7.60862 -7.61026 -7.6108 -7.61431 -7.61501 -7.61571 -7.61641 -7.61512 -7.61765 -7.61757 -7.61749 -7.61741 -7.61533 -7.61731 -7.61741 -7.61751 -7.6176 -7.61608 -7.61747 -7.61756 -7.61765 -7.61774 -7.61673 -7.61695 -7.61637 -7.61579 -7.61522 -7.61411 -7.61327 -7.61207 -7.61087 -7.60968 -7.60835 -7.6076 -7.60676 -7.60592 -7.60508 -7.60426 -7.60385 -7.60344 -7.60303 -7.60262 -7.60219 -7.60129 -7.60036 -7.59943 -7.5985 -7.59747 -7.5969 -7.5962 -7.59551 -7.59481 -7.59394 -7.59339 -7.59267 -7.59194 -7.59122 -7.59032 -7.58954 -7.58872 -7.5879 -7.58708 -7.58629 -7.58525 -7.58452 -7.5838 -7.58308 -7.58288 -7.58162 -7.58126 -7.5809 -7.58053 -7.58141 -7.57991 -7.58003 -7.58014 -7.58026 -7.58243 -7.58055 -7.58109 -7.58162 -7.58215 -7.58564 -7.58319 -7.58402 -7.58486 -7.5857 -7.59049 -7.58731 -7.58841 -7.5895 -7.5906 -7.59676 -7.59296 -7.59422 -7.5956 -7.59747 -7.60459 -7.60069 -7.60168 -7.60342 -7.60634 -7.61434 -7.61054 -7.61129 -7.61349 -7.61766 -7.62651 -7.62312 -7.62366 -7.62638 -7.63183 -7.6413 -7.63851 -7.63889 -7.64208 -7.6487 -7.65853 -7.65649 -7.65677 -7.66039 -7.668 -7.67795 -7.67678 -7.67709 -7.68105 -7.68936 -7.69914 -7.69878 -7.69918 -7.7034 -7.71216 -7.72164 -7.72203 -7.72256 -7.72701 -7.7361 -7.74526 -7.74639 -7.74753 -7.75233 -7.76116 -7.76999 -7.77187 -7.77375 -7.77881 -7.78726 -7.79571 -7.7983 -7.80089 -7.80614 -7.81417 -7.82219 -7.82541 -7.82862 -7.834 -7.84155 -7.84911 -7.85284 -7.85658 -7.86202 -7.86909 -7.87616 -7.8803 -7.88445 -7.88989 -7.89647 -7.90304 -7.90747 -7.9119 -7.91729 -7.92338 -7.92948 -7.93407 -7.93872 -7.944 -7.94958 -7.9552 -7.95984 -7.96458 -7.96967 -7.97481 -7.97998 -7.98455 -7.98923 -7.99405 -7.99883 -8.00357 -8.008 -8.01247 -8.01697 -8.0214 -8.02571 -8.02992 -8.03406 -8.03818 -8.04226 -8.04612 -8.04999 -8.05371 -8.05741 -8.06112 -8.06452 -8.06796 -8.0712 -8.07444 -8.07768 -8.08069 -8.08358 -8.08633 -8.08908 -8.09183 -8.09442 -8.09672 -8.09893 -8.10114 -8.10335 -8.10548 -8.10715 -8.10879 -8.11042 -8.11206 -8.11366 -8.11463 -8.11558 -8.11654 -8.1175 -8.1184 -8.1185 -8.1186 -8.1187 -8.1188 -8.11889 -8.11934 -8.11979 -8.12024 -8.12069 -8.12111 -8.12093 -8.1207 -8.12047 -8.12024 -8.11997 -8.11917 -8.11824 -8.11732 -8.11641 -8.11542 -8.11399 -8.11231 -8.11064 -8.10898 -8.10714 -8.10496 -8.10248 -8.10002 -8.09752 -8.09487 -8.09181 -8.0886 -8.08534 -8.08203 -8.07865 -8.07477 -8.07081 -8.06674 -8.06258 -8.05838 -8.05359 -8.04879 -8.04386 -8.03884 -8.0338 -8.02805 -8.02232 -8.01654 -8.01076 -8.00498 -7.99838 -7.99179 -7.9852 -7.97862 -7.97205 -7.96461 -7.95718 -7.94976 -7.94233 -7.9349 -7.92656 -7.91823 -7.90996 -7.90171 -7.89346 -7.88425 -7.87508 -7.86597 -7.85687 -7.84779 -7.8377 -7.82772 -7.81781 -7.80792 -7.7981 -7.78723 -7.77656 -7.76593 -7.7553 -7.74483 -7.73333 -7.72203 -7.71074 -7.69946 -7.6883 -7.67621 -7.66426 -7.6523 -7.64036 -7.62846 -7.62277 -7.61714 -7.61152 -7.6059 -7.60042 -7.5935 -7.58658 -7.57966 -7.57274 -7.56585 -7.5529 -7.54002 -7.52715 -7.51429 -7.50161 -7.48829 -7.47522 -7.46215 -7.4491 -7.43643 -7.42278 -7.40955 -7.39634 -7.38327 -7.37058 -7.3568 -7.34328 -7.33 -7.31708 -7.30438 -7.29053 -7.27675 -7.26352 -7.25104 -7.23855 -7.22484 -7.21114 -7.19829 -7.18629 -7.17429 -7.16098 -7.14768 -7.13535 -7.12401 -7.11266 -7.09993 -7.08736 -7.0758 -7.06498 -7.05441 -7.04238 -7.03103 -7.0203 -7.0099 -7.00027 -6.98912 -6.97926 -6.96953 -6.95981 -6.9511 -6.94144 -6.93287 -6.9243 -6.91574 -6.90769 -6.901 -6.89485 -6.8887 -6.88255 -6.87641 -6.87527 -6.87413 -6.87298 -6.87184 -6.8708 -6.86476 -6.85882 -6.85288 -6.84694 -6.84184 -6.83659 -6.8322 -6.82782 -6.82343 -6.82065 -6.81629 -6.81362 -6.81095 -6.80875 -6.80802 -6.80544 -6.8038 -6.80295 -6.8033 -6.80436 -6.80362 -6.80302 -6.80401 -6.80684 -6.80966 -6.81075 -6.81183 -6.81468 -6.81922 -6.82376 -6.82665 -6.82953 -6.834 -6.84022 -6.84642 -6.85113 -6.85595 -6.86211 -6.86962 -6.8774 -6.8838 -6.89075 -6.89846 -6.90688 -6.91616 -6.92417 -6.93302 -6.94216 -6.95139 -6.962 -6.97157 -6.98197 -6.99237 -7.00275 -7.01412 -7.02519 -7.03667 -7.04814 -7.0596 -7.07154 -7.08376 -7.09611 -7.10844 -7.12077 -7.13317 -7.13614 -7.13913 -7.14211 -7.1451 -7.14813 -7.15804 -7.16795 -7.17785 -7.18775 -7.19768 -7.21071 -7.22394 -7.23716 -7.25038 -7.26353 -7.27643 -7.28965 -7.30287 -7.31608 -7.329 -7.34151 -7.35434 -7.36717 -7.38001 -7.39219 -7.4041 -7.41616 -7.42822 -7.44012 -7.45123 -7.46223 -7.47319 -7.48415 -7.49464 -7.50445 -7.51427 -7.52398 -7.53357 -7.54227 -7.5505 -7.55884 -7.56713 -7.57509 -7.58166 -7.58809 -7.59473 -7.60138 -7.60722 -7.61149 -7.61577 -7.62037 -7.62497 -7.62825 -7.63007 -7.63189 -7.63412 -7.63636 -7.63672 -7.63568 -7.63465 -7.6341 -7.63349 -7.6305 -7.62641 -7.62218 -7.61852 -7.61388 -7.60752 -7.60043 -7.59259 -7.5854 -7.5761 -7.566 -7.55581 -7.54401 -7.53259 -7.51836 -7.50413 -7.48991 -7.47459 -7.45745 -7.43873 -7.42001 -7.4013 -7.38252 -7.3817 -7.38081 -7.37992 -7.37903 -7.37815 -7.35594 -7.33375 -7.31157 -7.28939 -7.26558 -7.23875 -7.21058 -7.18241 -7.15425 -7.12245 -7.09136 -7.05833 -7.02472 -6.98909 -6.95153 -6.91481 -6.87807 -6.83825 -6.79479 -6.75127 -6.70861 -6.66595 -6.61967 -6.56999 -6.52024 -6.47135 -6.42056 -6.36727 -6.31346 -6.25727 -6.20119 -6.14132 -6.08145 -6.02157 -5.96132 -5.95688 -5.95218 -5.94748 -5.94277 -5.93813 -5.87733 -5.81655 -5.75577 -5.69501 -5.63053 -5.56137 -5.48957 -5.41741 -5.34235 -5.26513 -5.18905 -5.11297 -5.03297 -4.94901 -4.86484 -4.78175 -4.69646 -4.60847 -4.52046 -4.42953 -4.38151 -4.33095 -4.28033 -4.2297 -4.18318 -4.13877 -4.09436 -4.04996 -4.00548 -3.95858 -3.86091 -3.76083 -3.66078 -3.55794 -3.45253 -3.34847 -3.24443 -3.13669 -3.02519 -2.91323 -2.80793 -2.69908 -2.5894 -2.47972 -2.3843 -2.37591 -2.36752 -2.35913 -2.35066 -2.34191 -2.22282 -2.10335 -1.98392 -1.86306 -1.73858 -1.61556 -1.49258 -1.36659 -1.23749 -1.10768 -1.01008 -0.910727 -0.810384 -0.710061 -0.619271 -0.585958 -0.552649 -0.519344 -0.485688 -0.451376 -0.317714 -0.182827 -0.0480041 0.0891668 0.228056 0.365463 0.503345 0.643274 0.783149 0.925007 0.952427 0.980028 1.00783 1.03563 1.06282 1.1772 1.29152 1.4058 1.52084 1.63738 1.78064 1.92382 2.0679 2.21278 2.35903 2.41605 2.47315 2.53036 2.58756 2.64246 2.73109 2.81968 2.90824 2.99697 3.08629 3.23169 3.37699 3.52211 3.66725 3.8137 3.87363 3.93343 3.99294 4.05244 4.10974 4.19534 4.28092 4.36646 4.45162 4.53707 4.68076 4.82436 4.96676 5.10846 5.25142 5.29508 5.33858 5.38154 5.42449 5.46646 5.5643 5.66211 5.75987 5.85657 5.95348 6.09203 6.23049 6.36634 6.50205 6.63849 6.65541 6.67226 6.68879 6.70532 6.72173 6.83921 6.95663 7.07402 7.18923 7.30449 7.42361 7.54203 7.65774 7.77341 7.885 7.89754 7.91008 7.92262 7.93484 7.94701 8.0729 8.19818 8.3232 8.44412 8.56552 8.63296 8.70013 8.76496 8.82979 8.89404 8.94719 9.00035 9.0535 9.10487 9.15606 9.27112 9.38617 9.49768 9.60768 9.71715 9.73627 9.75532 9.77359 9.79187 9.81018 9.89936 9.98855 10.0778 10.1634 10.2485 10.3302 10.4115 10.4895 10.5674 10.6476 10.6682 10.6887 10.7092 10.7289 10.7484 10.8451 10.9414 11.036 11.1273 11.2179 11.2602 11.3021 11.3423 11.3825 11.424 11.4714 11.5188 11.5662 11.6117 11.6565 11.7409 11.8253 11.9065 11.9863 12.0647 12.0838 12.1027 12.1208 12.1389 12.1574 12.2158 12.2743 12.3328 12.3891 12.4441 12.5167 12.5892 12.6582 12.7272 12.7944 12.8075 12.8204 12.8328 12.8452 12.858 12.911 12.964 13.017 13.0684 13.1184 13.1799 13.2415 13.3005 13.3586 13.4156 13.4404 13.4646 13.4882 13.5118 13.5372 13.5678 13.5985 13.6292 13.6593 13.6883 13.7399 13.7913 13.8416 13.8899 13.9378 13.9848 14.0307 14.0755 14.1203 14.1643 14.1732 14.1818 14.1903 14.1988 14.2077 14.2408 14.2738 14.3069 14.3397 14.3712 14.4097 14.4481 14.486 14.5223 14.5584 14.5933 14.6279 14.6613 14.6945 14.7271 14.7553 14.7822 14.8092 14.8361 14.8683 14.8705 14.8726 14.8747 14.8769 14.879 14.9068 14.9346 14.9623 14.99 15.0167 15.0419 15.0669 15.0918 15.116 15.14 15.1625 15.1851 15.2071 15.2287 15.2501 15.2703 15.2903 15.3098 15.3292 15.3485 15.3665 15.384 15.4014 15.4188 15.436 15.4479 15.4595 15.4711 15.4827 15.4961 15.4998 15.5034 15.507 15.5106 15.5142 15.5282 15.5423 15.5563 15.5703 15.5841 15.5965 15.609 15.6215 15.6339 15.6462 15.6571 15.6681 15.6792 15.6902 15.7012 15.7108 15.7205 15.7303 15.7401 15.7498 15.7584 15.767 15.7756 15.7843 15.793 15.8006 15.8082 15.8158 15.8235 15.8313 15.8381 15.8448 15.8516 15.8585 15.8655 15.8715 15.8776 15.8836 15.8898 15.8961 15.9016 15.9071 15.9126 15.9181 15.9239 15.9289 15.9341 15.9392 15.9444 15.9497 15.9545 15.9594 15.9644 15.9693 15.9743 15.9792 15.9841 15.9891 15.9941 15.9991 16.0043 16.0096 16.0149 16.0202 16.0255 16.0263 16.0273 16.0282 16.0291 16.03 16.0351 16.0403 16.0454 16.0505 16.0557 16.0627 16.0697 16.0767 16.0837 16.0909 16.0997 16.1086 16.1176 16.1264 16.1362 16.1455 16.1537 16.1619 16.17 16.1783 16.1878 16.1976 16.2074 16.2171 16.2272 16.2252 16.2211 16.2168 16.2121 16.1905 16.1553 16.1198 16.0841 16.0475 16.0056 15.9613 15.9209 15.883 15.8475 15.8137 15.7781 15.7426 15.7072 15.6721 15.637 15.5995 15.562 15.5225 15.4808 15.4392 15.3949 15.3505 15.3051 15.2587 15.2122 15.163 15.1137 15.0637 15.0131 14.9625 14.9091 14.8553 14.8006 14.7454 14.6897 14.631 14.5715 14.5113 14.4506 14.3889 14.3241 14.2578 14.1912 14.1245 14.0562 13.9844 13.9107 13.837 13.7633 13.6881 13.6081 13.5265 13.4449 13.3632 13.2805 13.1912 13.1007 13.0102 12.9197 12.8286 12.7543 12.6794 12.6045 12.5295 12.4429 12.4196 12.3963 12.373 12.3497 12.3262 12.2148 12.1031 11.9913 11.8796 11.7666 11.6434 11.5188 11.3941 11.2694 11.1423 11.0059 10.8664 10.7268 10.5872 10.4434 10.2919 10.1357 9.97951 9.82328 9.66138 9.49376 9.31737 9.14096 8.96353 8.77805 8.58666 8.39073 8.1936 7.99468 7.79167 7.58212 7.36162 7.1333 6.89542 6.6478 6.3921 6.1394 5.89149 5.64891 5.40891 5.16097 4.8994 4.58082 4.19795 3.80561 3.39962 2.99376 2.70856 2.53581 2.36313 2.18446 2.00594 1.52854 0.763706 0