# vtk DataFile Version 2.0
track0
ASCII
DATASET POLYDATA
POINTS 10930 double
-0.0205 0.001 1e-05
-0.0202034 0.00100022 1e-05
-0.0199069 0.00100067 1e-05
-0.0196103 0.00100132 1e-05
-0.0193137 0.00100216 1e-05
-0.0190172 0.0010032 1e-05
-0.0187132 0.00100461 1e-05
-0.0184093 0.00100572 1e-05
-0.0181054 0.0010068 1e-05
-0.0178015 0.00100784 1e-05
-0.0174976 0.00100885 1e-05
-0.0172058 0.00101 1e-05
-0.016914 0.00101081 1e-05
-0.0166222 0.00101159 1e-05
-0.0163305 0.00101234 1e-05
-0.0160387 0.00101307 1e-05
-0.0157586 0.00101393 1e-05
-0.0154784 0.00101461 1e-05
-0.0151983 0.00101533 1e-05
-0.0149182 0.00101609 1e-05
-0.0146381 0.00101689 1e-05
-0.0143692 0.00101781 1e-05
-0.0141002 0.00101866 1e-05
-0.0138313 0.00101956 1e-05
-0.0135624 0.00102052 1e-05
-0.0132934 0.00102152 1e-05
-0.0130366 0.00102258 1e-05
-0.0127798 0.00102363 1e-05
-0.012523 0.00102472 1e-05
-0.0122662 0.00102584 1e-05
-0.0120515 0.00102682 1e-05
-0.0120417 0.00102686 1e-05
-0.0120319 0.00102691 1e-05
-0.0120221 0.00102695 1e-05
-0.0120123 0.001027 1e-05
-0.0120025 0.00102705 1e-05
-0.0117547 0.00102821 1e-05
-0.0115068 0.00102939 1e-05
-0.0112589 0.0010306 1e-05
-0.0110111 0.00103183 1e-05
-0.0107632 0.00103308 1e-05
-0.0105252 0.0010343 1e-05
-0.0102873 0.00103554 1e-05
-0.0100493 0.0010368 1e-05
-0.00981133 0.00103807 1e-05
-0.00957337 0.00103935 1e-05
-0.00934491 0.00104058 1e-05
-0.00911645 0.00104183 1e-05
-0.008888 0.00104309 1e-05
-0.00865954 0.00104436 1e-05
-0.00843108 0.00104563 1e-05
-0.00821175 0.00104684 1e-05
-0.00799242 0.00104807 1e-05
-0.00777309 0.0010493 1e-05
-0.00755376 0.00105054 1e-05
-0.00733443 0.00105177 1e-05
-0.00712387 0.00105294 1e-05
-0.0069133 0.00105413 1e-05
-0.00670273 0.00105531 1e-05
-0.00649217 0.0010565 1e-05
-0.0062816 0.00105769 1e-05
-0.00607944 0.0010588 1e-05
-0.00587729 0.00105993 1e-05
-0.00567514 0.00106106 1e-05
-0.00547298 0.00106218 1e-05
-0.00527083 0.00106331 1e-05
-0.00507675 0.00106436 1e-05
-0.00488267 0.00106543 1e-05
-0.0046886 0.00106649 1e-05
-0.00449452 0.00106755 1e-05
-0.00430044 0.0010686 1e-05
-0.00411412 0.00106959 1e-05
-0.0039278 0.00107058 1e-05
-0.00374147 0.00107157 1e-05
-0.00355515 0.00107256 1e-05
-0.00336883 0.00107353 1e-05
-0.00318995 0.00107445 1e-05
-0.00301107 0.00107537 1e-05
-0.00283219 0.00107629 1e-05
-0.00265331 0.00107719 1e-05
-0.00247443 0.00107809 1e-05
-0.0023027 0.00107893 1e-05
-0.00213097 0.00107977 1e-05
-0.00195924 0.0010806 1e-05
-0.0017875 0.00108142 1e-05
-0.00161577 0.00108223 1e-05
-0.0014509 0.00108298 1e-05
-0.00128603 0.00108373 1e-05
-0.00112116 0.00108446 1e-05
-0.000956289 0.00108518 1e-05
-0.000791418 0.00108588 1e-05
-0.000633135 0.00108653 1e-05
-0.000474851 0.00108716 1e-05
-0.000316567 0.00108777 1e-05
-0.000158283 0.00108836 1e-05
0 0.00108892 1e-05
0.000105677 0.00108927 1e-05
0.000211355 0.00108962 1e-05
0.000317032 0.00108995 1e-05
0.00042271 0.00109026 1e-05
0.000528387 0.00109057 1e-05
0.000634886 0.00109085 1e-05
0.000741385 0.00109113 1e-05
0.000847885 0.0010914 1e-05
0.000954384 0.00109165 1e-05
0.00106088 0.0010919 1e-05
0.00116821 0.00109212 1e-05
0.00127554 0.00109235 1e-05
0.00138286 0.00109256 1e-05
0.00149019 0.00109276 1e-05
0.00159752 0.00109295 1e-05
0.00170568 0.00109312 1e-05
0.00181384 0.00109328 1e-05
0.001922 0.00109344 1e-05
0.00203016 0.00109358 1e-05
0.00213833 0.00109371 1e-05
0.00224733 0.00109382 1e-05
0.00235633 0.00109394 1e-05
0.00246533 0.00109404 1e-05
0.00257434 0.00109413 1e-05
0.00268334 0.00109422 1e-05
0.00279319 0.00109428 1e-05
0.00290304 0.00109435 1e-05
0.00301289 0.00109441 1e-05
0.00312274 0.00109446 1e-05
0.00323259 0.00109451 1e-05
0.00334329 0.00109454 1e-05
0.003454 0.00109457 1e-05
0.0035647 0.0010946 1e-05
0.0036754 0.00109462 1e-05
0.00378611 0.00109464 1e-05
0.00389767 0.00109464 1e-05
0.00400924 0.00109464 1e-05
0.0041208 0.00109464 1e-05
0.00423237 0.00109463 1e-05
0.00434393 0.00109461 1e-05
0.00445636 0.00109459 1e-05
0.00456879 0.00109456 1e-05
0.00468123 0.00109453 1e-05
0.00479366 0.0010945 1e-05
0.00490609 0.00109445 1e-05
0.0050194 0.0010944 1e-05
0.0051327 0.00109435 1e-05
0.00524601 0.00109429 1e-05
0.00535931 0.00109423 1e-05
0.00547262 0.00109416 1e-05
0.00554953 0.00109411 1e-05
0.00562644 0.00109406 1e-05
0.00570335 0.00109401 1e-05
0.00578027 0.00109395 1e-05
0.00585559 0.0010939 1e-05
0.00589319 0.00109387 1e-05
0.00593078 0.00109384 1e-05
0.00596837 0.00109381 1e-05
0.00600596 0.00109378 1e-05
0.00604356 0.00109374 1e-05
0.00615863 0.00109364 1e-05
0.00627371 0.00109354 1e-05
0.00638878 0.00109343 1e-05
0.00650386 0.00109332 1e-05
0.00661893 0.0010932 1e-05
0.0067349 0.00109308 1e-05
0.00685087 0.00109295 1e-05
0.00696684 0.00109282 1e-05
0.00708281 0.00109268 1e-05
0.00719878 0.00109254 1e-05
0.00731565 0.00109238 1e-05
0.00743252 0.00109223 1e-05
0.00754939 0.00109207 1e-05
0.00766626 0.00109191 1e-05
0.00778313 0.00109174 1e-05
0.00790091 0.00109155 1e-05
0.00801869 0.00109138 1e-05
0.00813647 0.00109119 1e-05
0.00825425 0.00109101 1e-05
0.00837203 0.00109081 1e-05
0.00849073 0.00109059 1e-05
0.00860942 0.00109039 1e-05
0.00872812 0.00109018 1e-05
0.00884682 0.00108997 1e-05
0.00896551 0.00108975 1e-05
0.00908513 0.00108949 1e-05
0.00920475 0.00108926 1e-05
0.00932437 0.00108903 1e-05
0.00944398 0.00108878 1e-05
0.0095636 0.00108854 1e-05
0.00968415 0.00108825 1e-05
0.0098047 0.00108799 1e-05
0.00992525 0.00108772 1e-05
0.0100458 0.00108745 1e-05
0.0101663 0.00108717 1e-05
0.0102878 0.00108685 1e-05
0.0104093 0.00108656 1e-05
0.0105308 0.00108626 1e-05
0.0106523 0.00108596 1e-05
0.0107738 0.00108565 1e-05
0.0108962 0.00108529 1e-05
0.0110186 0.00108496 1e-05
0.0111411 0.00108463 1e-05
0.0112635 0.00108429 1e-05
0.0113859 0.00108395 1e-05
0.0115093 0.00108355 1e-05
0.0116327 0.00108319 1e-05
0.0117561 0.00108283 1e-05
0.0118795 0.00108245 1e-05
0.0120028 0.00108207 1e-05
0.0121272 0.00108164 1e-05
0.0122515 0.00108124 1e-05
0.0123759 0.00108083 1e-05
0.0125002 0.00108042 1e-05
0.0126245 0.00108 1e-05
0.0127498 0.00107952 1e-05
0.0128752 0.00107908 1e-05
0.0130005 0.00107863 1e-05
0.0131258 0.00107818 1e-05
0.0132511 0.00107771 1e-05
0.0133774 0.00107719 1e-05
0.0135036 0.0010767 1e-05
0.0136299 0.0010762 1e-05
0.0137562 0.00107571 1e-05
0.0138825 0.00107519 1e-05
0.0140098 0.00107462 1e-05
0.014137 0.00107408 1e-05
0.0142643 0.00107354 1e-05
0.0143915 0.00107299 1e-05
0.0145188 0.00107243 1e-05
0.0146471 0.00107181 1e-05
0.0147753 0.00107122 1e-05
0.0149036 0.00107062 1e-05
0.0150318 0.00107002 1e-05
0.0151601 0.0010694 1e-05
0.0152893 0.00106874 1e-05
0.0154186 0.00106808 1e-05
0.0155478 0.00106744 1e-05
0.0156771 0.00106678 1e-05
0.0158063 0.0010661 1e-05
0.0159366 0.00106538 1e-05
0.0160668 0.00106467 1e-05
0.0161971 0.00106396 1e-05
0.0163274 0.00106325 1e-05
0.0164576 0.00106251 1e-05
0.0165889 0.00106173 1e-05
0.0167201 0.00106096 1e-05
0.0168514 0.00106018 1e-05
0.0169827 0.0010594 1e-05
0.0171139 0.0010586 1e-05
0.0172462 0.00105776 1e-05
0.0173785 0.00105692 1e-05
0.0175108 0.00105608 1e-05
0.0176431 0.00105523 1e-05
0.0177754 0.00105435 1e-05
0.0179087 0.00105345 1e-05
0.018042 0.00105254 1e-05
0.0181753 0.00105162 1e-05
0.0183087 0.00105069 1e-05
0.018442 0.00104975 1e-05
0.0185763 0.00104877 1e-05
0.0187107 0.00104779 1e-05
0.018845 0.00104679 1e-05
0.0189794 0.00104579 1e-05
0.0191137 0.00104476 1e-05
0.0192491 0.00104371 1e-05
0.0193845 0.00104265 1e-05
0.0195199 0.00104157 1e-05
0.0196553 0.00104048 1e-05
0.0197907 0.00103937 1e-05
0.0199272 0.00103825 1e-05
0.0200636 0.0010371 1e-05
0.0202001 0.00103593 1e-05
0.0203365 0.00103475 1e-05
0.020473 0.00103356 1e-05
0.0206105 0.00103236 1e-05
0.020748 0.00103112 1e-05
0.0208855 0.00102986 1e-05
0.021023 0.00102859 1e-05
0.0211606 0.00102731 1e-05
0.0212991 0.00102602 1e-05
0.0214377 0.00102469 1e-05
0.0215763 0.00102334 1e-05
0.0217149 0.00102197 1e-05
0.0218535 0.00102059 1e-05
0.0219931 0.00101921 1e-05
0.0221328 0.00101779 1e-05
0.0222724 0.00101633 1e-05
0.0224121 0.00101486 1e-05
0.0225517 0.00101339 1e-05
0.0226925 0.00101191 1e-05
0.0228332 0.00101039 1e-05
0.022974 0.00100883 1e-05
0.0231147 0.00100726 1e-05
0.0232555 0.00100569 1e-05
0.0233973 0.0010041 1e-05
0.0235391 0.00100248 1e-05
0.023681 0.00100082 1e-05
0.0238228 0.00099914 1e-05
0.0239647 0.000997459 1e-05
0.0241076 0.000995768 1e-05
0.0242505 0.000994033 1e-05
0.0243935 0.000992264 1e-05
0.0245364 0.000990478 1e-05
0.0246794 0.000988686 1e-05
0.0248234 0.000986884 1e-05
0.0249675 0.000985035 1e-05
0.0251115 0.000983155 1e-05
0.0252556 0.000981256 1e-05
0.0253996 0.000979348 1e-05
0.0255448 0.000977427 1e-05
0.02569 0.000975458 1e-05
0.0258351 0.000973461 1e-05
0.0259803 0.000971444 1e-05
0.0261255 0.000969412 1e-05
0.0262718 0.000967368 1e-05
0.0264181 0.000965274 1e-05
0.0265644 0.000963156 1e-05
0.0267107 0.000961017 1e-05
0.026857 0.000958859 1e-05
0.0270044 0.000956687 1e-05
0.0271519 0.000954464 1e-05
0.0272993 0.00095222 1e-05
0.0274467 0.000949955 1e-05
0.0275942 0.000947668 1e-05
0.0277428 0.000945361 1e-05
0.0278914 0.000943007 1e-05
0.0280399 0.000940631 1e-05
0.0281885 0.000938232 1e-05
0.0283371 0.000935811 1e-05
0.0284869 0.000933363 1e-05
0.0286366 0.000930874 1e-05
0.0287863 0.000928361 1e-05
0.0289361 0.000925826 1e-05
0.0290858 0.000923266 1e-05
0.0292367 0.000920673 1e-05
0.0293876 0.000918044 1e-05
0.0295385 0.00091539 1e-05
0.0296894 0.000912711 1e-05
0.0298403 0.000910007 1e-05
0.0299804 0.000907478 1e-05
0.0301205 0.000904921 1e-05
0.0302605 0.000902343 1e-05
0.0304006 0.000899742 1e-05
0.0305315 0.00089729 1e-05
0.0305454 0.000897029 1e-05
0.0305592 0.000896768 1e-05
0.030573 0.000896506 1e-05
0.0305869 0.000896244 1e-05
0.0306007 0.000895982 1e-05
0.030754 0.000893077 1e-05
0.0309072 0.000890144 1e-05
0.0310605 0.000887183 1e-05
0.0312138 0.000884195 1e-05
0.031367 0.00088118 1e-05
0.0315215 0.000878119 1e-05
0.0316759 0.000875024 1e-05
0.0318304 0.0008719 1e-05
0.0319848 0.000868748 1e-05
0.0321393 0.000865565 1e-05
0.0322949 0.000862342 1e-05
0.0324506 0.000859077 1e-05
0.0326062 0.000855782 1e-05
[...]
POINT_DATA 10930
 FIELD attributes 1
U 3 10930 float
10.0004 	0.0075752 	0 10.0023 	0.0151261 	0 10.0042 	0.0217839 	0 10.0061 	0.0283966 	0 10.008 	0.0349644 	0 10.0143 	0.0464145 	0 10.016 	0.0367855 	0 10.0208 	0.0355853 	0 10.0255 	0.0343881 	0 10.0302 	0.0331938 	0 10.0387 	0.0395939 	0 10.0407 	0.0278451 	0 10.0459 	0.0268844 	0 10.0511 	0.0259208 	0 10.0563 	0.0249545 	0 10.0639 	0.0309937 	0 10.0663 	0.0245674 	0 10.0709 	0.0259129 	0 10.0754 	0.0272642 	0 10.0799 	0.0286213 	0 10.0856 	0.034499 	0 10.0886 	0.0319591 	0 10.0925 	0.0338948 	0 10.0964 	0.0358383 	0 10.1003 	0.0377897 	0 10.1044 	0.0416649 	0 10.1076 	0.041336 	0 10.1109 	0.042826 	0 10.1142 	0.044321 	0 10.1175 	0.0458211 	0 10.1203 	0.0470795 	0 10.1204 	0.047137 	0 10.1205 	0.0471945 	0 10.1207 	0.047252 	0 10.1208 	0.0473095 	0 10.1209 	0.0473469 	0 10.1235 	0.0483525 	0 10.1261 	0.0493457 	0 10.1286 	0.0503417 	0 10.1312 	0.0513402 	0 10.134 	0.0518571 	0 10.1356 	0.0528364 	0 10.1374 	0.0534699 	0 10.1392 	0.0541047 	0 10.141 	0.0547409 	0 10.1433 	0.0545652 	0 10.1442 	0.0555097 	0 10.1454 	0.055876 	0 10.1467 	0.0562429 	0 10.1479 	0.0566103 	0 10.1497 	0.0559718 	0 10.1502 	0.0568496 	0 10.1509 	0.0570081 	0 10.1517 	0.0571669 	0 10.1524 	0.0573258 	0 10.1538 	0.0563935 	0 10.1542 	0.0571816 	0 10.1546 	0.0571815 	0 10.1549 	0.0571814 	0 10.1553 	0.0571814 	0 10.1561 	0.056081 	0 10.1566 	0.0567664 	0 10.1567 	0.056643 	0 10.1568 	0.0565196 	0 10.1568 	0.0563961 	0 10.1569 	0.055207 	0 10.1579 	0.0557782 	0 10.1578 	0.0555509 	0 10.1576 	0.0553236 	0 10.1575 	0.0550961 	0 10.1567 	0.0538607 	0 10.1584 	0.0543049 	0 10.1581 	0.0539736 	0 10.1578 	0.0536421 	0 10.1575 	0.0533106 	0 10.1558 	0.0520317 	0 10.1585 	0.0523239 	0 10.158 	0.0518726 	0 10.1576 	0.0514211 	0 10.1572 	0.0509696 	0 10.1545 	0.0496306 	0 10.1582 	0.0497314 	0 10.1578 	0.0491046 	0 10.1573 	0.0484778 	0 10.1569 	0.0478507 	0 10.153 	0.0463724 	0 10.158 	0.0461505 	0 10.1575 	0.0451721 	0 10.1569 	0.0441934 	0 10.1564 	0.0432146 	0 10.1512 	0.0414129 	0 10.1573 	0.0406198 	1.6016e-21 10.1567 	0.0390895 	8.237e-21 10.156 	0.037559 	1.48744e-20 10.1553 	0.0360282 	2.15139e-20 10.1487 	0.0339705 	1.91661e-20 10.1552 	0.033228 	1.16998e-19 10.1542 	0.0317999 	1.0776e-19 10.1531 	0.0303716 	9.85005e-20 10.1521 	0.0289431 	8.92184e-20 10.1447 	0.0271393 	-1.90446e-20 10.1508 	0.0266697 	-5.04126e-20 10.1495 	0.0255035 	-5.62634e-20 10.1482 	0.0243371 	-6.21062e-20 10.1469 	0.0231705 	-6.79408e-20 10.1394 	0.0215312 	-2.9986e-20 10.1451 	0.0212446 	-2.5876e-20 10.1437 	0.0200417 	-1.82427e-20 10.1422 	0.0188385 	-1.06106e-20 10.1408 	0.017635 	-2.97975e-21 10.1335 	0.0158357 	7.8352e-21 10.1388 	0.0157761 	-9.85464e-21 10.1373 	0.0146037 	-3.39839e-20 10.1358 	0.0134309 	-5.81168e-20 10.1342 	0.0122575 	-8.22535e-20 10.1272 	0.0103027 	-1.14469e-19 10.1319 	0.0105416 	-1.49655e-19 10.1302 	0.00960698 	-1.3349e-19 10.1285 	0.00867187 	-1.17314e-19 10.1269 	0.0077363 	-1.01127e-19 10.1201 	0.00586693 	-4.04406e-20 10.124 	0.00629581 	2.69874e-20 10.1222 	0.00561176 	4.40343e-20 10.1203 	0.00492733 	6.10702e-20 10.1184 	0.00424252 	7.80951e-20 10.1121 	0.00261405 	4.7828e-20 10.1151 	0.00301348 	-2.95487e-20 10.1131 	0.00246617 	-3.67228e-20 10.1111 	0.00191856 	-4.38829e-20 10.109 	0.00137063 	-5.1029e-20 10.1033 	2.38469e-05 	-7.07319e-22 10.1053 	0.000243483 	4.37521e-20 10.1031 	-0.000249961 	3.14622e-20 10.1008 	-0.000743667 	1.91595e-20 10.0986 	-0.00123763 	6.84419e-21 10.0935 	-0.00229786 	-4.08627e-20 10.0943 	-0.00229493 	-9.06217e-20 10.0918 	-0.00275983 	-1.18075e-19 10.0893 	-0.00322496 	-1.45523e-19 10.0868 	-0.00369031 	-1.72967e-19 10.0824 	-0.00447653 	-1.82136e-19 10.0819 	-0.00466595 	-1.82634e-19 10.0791 	-0.0051088 	-1.66899e-19 10.0763 	-0.00555183 	-1.51161e-19 10.0735 	-0.00599504 	-1.35419e-19 10.0699 	-0.00654913 	-1.138e-19 10.0688 	-0.00674916 	-9.97014e-20 10.0667 	-0.00703561 	-8.42789e-20 10.0646 	-0.00732213 	-6.88571e-20 10.0625 	-0.00760873 	-5.34359e-20 10.0604 	-0.00788949 	-3.83328e-20 10.0594 	-0.00803054 	-3.05281e-20 10.0583 	-0.00817162 	-2.27233e-20 10.0573 	-0.00831272 	-1.49183e-20 10.0563 	-0.00845383 	-7.11317e-21 10.0522 	-0.00866159 	-1.44204e-22 10.0516 	-0.00899913 	0 10.0482 	-0.00941295 	0 10.0447 	-0.00982692 	0 10.0412 	-0.010241 	0 10.0247 	-0.0110194 	-5.87245e-22 10.0333 	-0.0110368 	-1.95765e-20 10.0295 	-0.0114421 	-4.1894e-20 10.0256 	-0.0118476 	-6.42101e-20 10.0217 	-0.0122532 	-8.65248e-20 9.99426 	-0.0134267 	-1.08579e-19 10.0126 	-0.0130487 	-1.20037e-19 10.0083 	-0.0134512 	-1.22463e-19 10.004 	-0.0138538 	-1.24889e-19 9.99975 	-0.0142565 	-1.27316e-19 9.96069 	-0.0158881 	-1.21078e-19 9.98923 	-0.0150823 	-1.25379e-19 9.98447 	-0.0154827 	-9.03834e-20 9.97971 	-0.0158833 	-5.53948e-20 9.97495 	-0.016284 	-2.04134e-20 9.92395 	-0.0183892 	5.26309e-20 9.96283 	-0.0171591 	5.29872e-20 9.95758 	-0.0175572 	5.4437e-20 9.95234 	-0.0179554 	5.58852e-20 9.94709 	-0.0183538 	5.73317e-20 9.88408 	-0.0209136 	6.5044e-20 9.9332 	-0.0192916 	5.03119e-20 9.92745 	-0.0196883 	3.55812e-20 9.92169 	-0.0200852 	2.08497e-20 9.91594 	-0.0204822 	6.11721e-21 9.84115 	-0.023453 	-2.77088e-21 9.90017 	-0.0214931 	-5.46266e-21 9.8939 	-0.021891 	-1.93665e-20 9.88763 	-0.0222891 	-3.32695e-20 9.88135 	-0.0226874 	-4.71716e-20 9.79531 	-0.0260085 	-6.11093e-20 9.86361 	-0.0237769 	-5.35145e-20 9.85681 	-0.0241798 	-6.256e-20 9.85 	-0.024583 	-7.16032e-20 9.84319 	-0.0249863 	-8.06439e-20 9.74668 	-0.0285861 	-1.12774e-19 9.8234 	-0.026158 	-2.33544e-19 9.81606 	-0.0265697 	-2.22469e-19 9.80871 	-0.0269816 	-2.11404e-19 9.80136 	-0.0273938 	-2.0035e-19 9.69545 	-0.0311912 	-5.28414e-20 9.77951 	-0.0286452 	-2.96997e-20 9.77163 	-0.0290701 	-1.98606e-20 9.76375 	-0.0294954 	-1.00208e-20 9.75586 	-0.0299209 	-1.80354e-22 9.64181 	-0.0338343 	0 9.72976 	-0.0313204 	0 9.72353 	-0.0316983 	0 9.71511 	-0.0321432 	0 9.69791 	-0.0328623 	0 9.58596 	-0.0365367 	0 9.66876 	-0.0343536 	0 9.67186 	-0.034475 	7.92976e-21 9.66292 	-0.0349446 	1.70553e-20 9.63533 	-0.0359608 	2.90066e-20 9.5281 	-0.0393097 	5.30223e-20 9.60522 	-0.0374808 	2.14863e-19 9.61672 	-0.0374147 	2.56864e-19 9.60727 	-0.0379117 	2.60638e-19 9.57038 	-0.0391533 	2.15246e-19 9.46844 	-0.04216 	5.33338e-20 9.53948 	-0.0406937 	2.95753e-20 9.5583 	-0.0405132 	1.59538e-20 9.54836 	-0.0410413 	7.91259e-21 9.50342 	-0.0424344 	9.99813e-21 9.40722 	-0.0450951 	2.69125e-20 9.47193 	-0.0439919 	1.32595e-19 9.49689 	-0.043772 	1.83114e-19 9.48648 	-0.0443387 	1.84583e-19 9.43484 	-0.0458123 	1.24371e-19 9.34467 	-0.0481343 	6.55658e-21 9.4029 	-0.0473963 	-1.18741e-19 9.43275 	-0.0472121 	-1.97843e-19 9.42188 	-0.047823 	-2.10734e-19 9.36497 	-0.0493049 	-1.64232e-19 9.28104 	-0.0512987 	-8.29588e-20 9.33283 	-0.050903 	-2.24486e-19 9.36637 	-0.0508124 	-3.25811e-19 9.35509 	-0.0514713 	-3.28611e-19 9.29427 	-0.0529004 	-2.14771e-19 9.2166 	-0.0545929 	-6.13825e-20 9.2621 	-0.0545298 	-3.43046e-20 9.29814 	-0.0545948 	-1.02184e-20 9.28647 	-0.0553073 	-1.21186e-21 9.22307 	-0.0566206 	0 9.15158 	-0.0580295 	0 9.19103 	-0.0583047 	0 9.22852 	-0.0585988 	0 9.21649 	-0.0593674 	0 9.15172 	-0.0604909 	3.99053e-21 9.08619 	-0.0616212 	8.03514e-21 9.11993 	-0.0622343 	4.19557e-21 9.15366 	-0.0628481 	3.56252e-22 9.1403 	-0.0636557 	4.50437e-22 9.08049 	-0.0645112 	4.50027e-21 9.02064 	-0.0653684 	8.55096e-21 9.04907 	-0.0663085 	4.71171e-21 9.07747 	-0.0672495 	8.72954e-22 9.06415 	-0.0680728 	9.63231e-21 9.00965 	-0.0686664 	3.20166e-20 8.95512 	-0.0692615 	5.44021e-20 8.97867 	-0.0705084 	2.05909e-19 9.00218 	-0.0717568 	3.57416e-19 8.98903 	-0.0725908 	3.58127e-19 8.93942 	-0.0729472 	2.06653e-19 8.88979 	-0.0733047 	5.51779e-20 8.90892 	-0.0748427 	3.31411e-20 8.92801 	-0.0763826 	1.11057e-20 8.91513 	-0.0772218 	1.94448e-21 8.86998 	-0.0773555 	5.807e-21 8.8248 	-0.07749 	9.66991e-21 8.83999 	-0.0792825 	6.02769e-21 8.85511 	-0.0810771 	2.38657e-21 8.84261 	-0.0819185 	-4.85384e-21 8.80145 	-0.0818678 	-9.60564e-21 8.76028 	-0.0818176 	-1.43585e-20 8.77197 	-0.0838482 	-6.64636e-20 8.78359 	-0.0858812 	-1.18574e-19 8.77155 	-0.0867248 	-1.22634e-19 8.73395 	-0.0865104 	-7.50498e-20 8.69634 	-0.0862961 	-2.74649e-20 8.70497 	-0.088524 	9.15084e-20 8.71352 	-0.0907546 	2.10473e-19 8.70202 	-0.0915962 	2.24372e-19 8.66755 	-0.0912531 	1.2508e-19 8.63307 	-0.0909099 	2.57848e-20 8.63903 	-0.0933053 	1.20274e-20 8.64349 	-0.095577 	-1.17697e-21 8.63165 	-0.0964029 	-7.98977e-21 8.60229 	-0.0961276 	-4.02208e-21 8.57055 	-0.0957032 	1.4057e-21 8.57422 	-0.0982702 	-5.32988e-21 8.57423 	-0.100439 	-1.37205e-20 8.56255 	-0.101301 	-2.74971e-20 8.5382 	-0.101174 	-7.40247e-20 8.50883 	-0.100656 	-1.33537e-19 8.51051 	-0.103301 	-2.89285e-19 8.50699 	-0.105258 	-3.73554e-19 8.49547 	-0.106147 	-3.4713e-19 8.4753 	-0.106258 	-2.37472e-19 8.44797 	-0.105722 	-5.87112e-20 8.44793 	-0.108435 	8.8674e-20 8.44159 	-0.11016 	1.52456e-19 8.43022 	-0.11109 	1.49091e-19 8.41358 	-0.111483 	1.07397e-19 8.38804 	-0.110964 	8.28559e-22 8.38653 	-0.113779 	-1.04618e-19 8.37801 	-0.11526 	-1.41451e-19 8.36675 	-0.116226 	-1.51751e-19 8.35304 	-0.116903 	-1.42627e-19 8.32901 	-0.116352 	-5.11496e-20 8.32628 	-0.119202 	-3.81286e-20 8.31606 	-0.120395 	-2.53762e-20 8.30491 	-0.12139 	-1.26587e-20 8.29366 	-0.122378 	1.05337e-22 8.2709 	-0.12185 	2.40779e-20 8.26664 	-0.124603 	-4.60633e-22 8.2556 	-0.125642 	-7.23412e-21 8.24452 	-0.126682 	-1.40091e-20 8.23339 	-0.127723 	-2.07856e-20 8.21368 	-0.127536 	-7.97816e-21 8.20746 	-0.130003 	-2.47206e-20 8.19644 	-0.131075 	-3.21798e-20 8.18538 	-0.132147 	-3.96436e-20 8.17426 	-0.13322 	-4.71123e-20 8.15719 	-0.133349 	-6.53944e-20 8.14938 	-0.135455 	6.45789e-21 8.13837 	-0.136546 	8.15276e-21 8.12732 	-0.137637 	9.81767e-21 8.11621 	-0.138729 	1.14525e-20 8.10143 	-0.139215 	-3.15881e-20 8.0923 	-0.140993 	9.58324e-21 8.08128 	-0.142132 	1.20575e-20 8.07022 	-0.143272 	1.4504e-20 8.05911 	-0.144413 	1.69226e-20 8.04632 	-0.145277 	1.50468e-21 8.03695 	-0.146672 	-6.95252e-22 8.02675 	-0.147762 	-5.38958e-22 8.01651 	-0.148852 	-3.82705e-22 8.00622 	-0.149943 	-2.26494e-22 7.99657 	-0.150963 	-8.05478e-23 7.99551 	-0.151071 	-6.37255e-23 7.99446 	-0.15118 	-4.69027e-23 7.9934 	-0.151288 	-3.00795e-23 7.99235 	-0.151397 	-1.32559e-23 7.9914 	-0.151477 	0 7.97998 	-0.152711 	0 7.96851 	-0.153919 	0 7.957 	-0.155128 	0 7.94543 	-0.156339 	0 7.93507 	-0.157226 	0 7.92338 	-0.158779 	0 7.91184 	-0.160025 	0 7.90024 	-0.161273 	0 7.88858 	-0.162522 	0 7.87924 	-0.163163 	0 7.86728 	-0.16503 	0 7.85561 	-0.166313 	0 7.84388 	-0.167598 	0 7.8321 	-0.168883 	0 7.82367 	-0.169277 	0 7.8114 	-0.171446 	0 7.7996 	-0.172749 	0 7.78774 	-0.174053 	0 7.77581 	-0.175358 	0 7.7683 	-0.175499 	0 7.75586 	-0.177965 	0 7.7439 	-0.179318 	0 7.73188 	-0.180665 	0 7.7205 	-0.181825 	0 7.71302 	-0.181939 	0 7.70043 	-0.184413 	0 7.68813 	-0.186088 	-7.32152e-21 7.67589 	-0.187462 	-1.74007e-20 7.66537 	-0.188358 	-2.74949e-20 7.65751 	-0.188522 	-3.76159e-20 7.64471 	-0.190981 	-2.64301e-20 7.63205 	-0.19295 	-1.97839e-20 7.61961 	-0.194321 	-1.8677e-20 7.60994 	-0.19493 	-2.486e-20 7.60179 	-0.195122 	-3.50368e-20 7.58888 	-0.197564 	-2.37483e-20 7.57594 	-0.199835 	-1.24462e-20 7.56328 	-0.201235 	-1.10169e-21 7.55433 	-0.201613 	0 7.54578 	-0.201882 	0 7.53264 	-0.204319 	0 7.51939 	-0.206758 	0 7.50708 	-0.208131 	-4.15142e-21 7.49814 	-0.208456 	-8.95377e-21 7.48919 	-0.208782 	-1.37559e-20 7.47569 	-0.211198 	-4.87236e-20 7.4621 	-0.213616 	-8.36877e-20 7.45046 	-0.214994 	-9.39516e-20 7.44126 	-0.21533 	-7.66996e-20 7.43205 	-0.215665 	-5.94428e-20 7.41834 	-0.21805 	-3.34584e-20 7.40453 	-0.220437 	-7.45883e-21 7.39354 	-0.22183 	-1.0618e-20 7.38395 	-0.222192 	-3.4422e-20 7.37434 	-0.222554 	-5.82275e-20 7.36029 	-0.224917 	-7.12928e-20 7.34614 	-0.227282 	-8.43545e-20 7.33579 	-0.228627 	-8.33035e-20 7.32584 	-0.229069 	-5.31831e-20 7.31589 	-0.229448 	-2.09975e-20 7.30153 	-0.231777 	-1.74478e-20 7.28819 	-0.233817 	-1.23605e-20 7.27748 	-0.235152 	-3.51827e-21 7.26702 	-0.235916 	0 7.25672 	-0.236302 	0 7.24202 	-0.238601 	0 7.22947 	-0.24032 	0 7.2184 	-0.241635 	0 7.20741 	-0.242706 	0 7.19674 	-0.243082 	0 7.1817 	-0.245337 	0 7.16994 	-0.246719 	0 7.15851 	-0.248001 	0 7.14702 	-0.249283 	0 7.13596 	-0.249723 	-1.42639e-20 7.12136 	-0.251724 	1.97669e-23 7.10962 	-0.252956 	1.14645e-22 7.09783 	-0.254188 	2.09557e-22 7.08597 	-0.255422 	3.04504e-22 7.07436 	-0.256151 	2.10837e-21 7.06058 	-0.25778 	1.45726e-20 7.0485 	-0.258953 	1.23604e-20 7.03636 	-0.260127 	1.01356e-20 7.02416 	-0.261302 	7.89811e-21 7.01201 	-0.262321 	3.74064e-21 7.00593 	-0.26296 	2.83469e-21 7.00037 	-0.26346 	6.33987e-21 6.99479 	-0.263961 	9.84562e-21 6.98921 	-0.264461 	1.33519e-20 6.98377 	-0.264949 	1.67663e-20 6.97666 	-0.265575 	2.05071e-20 6.96955 	-0.266201 	2.4247e-20 6.96241 	-0.266827 	2.79858e-20 6.95526 	-0.267454 	3.17237e-20 6.94911 	-0.267919 	3.5525e-20 6.93563 	-0.269164 	3.29025e-20 6.92254 	-0.270225 	3.18291e-20 6.90939 	-0.271286 	3.07497e-20 6.89619 	-0.272348 	2.96643e-20 6.8858 	-0.272943 	2.87846e-20 6.87121 	-0.274438 	2.72311e-20 6.85779 	-0.275408 	2.54639e-20 6.84432 	-0.276379 	2.36911e-20 6.8308 	-0.27735 	2.19127e-20 6.82198 	-0.277543 	2.40176e-20 6.80632 	-0.279241 	1.99319e-20 6.7925 	-0.280151 	1.87512e-20 6.77873 	-0.281024 	1.77075e-20 6.76629 	-0.281673 	1.76899e-20 6.75775 	-0.281678 	2.06196e-20 6.7418 	-0.283268 	1.61599e-20 6.72685 	-0.284429 	1.01574e-20 6.7128 	-0.285204 	2.76974e-21 6.70204 	-0.285433 	-2.1278e-21 6.69326 	-0.285334 	-5.5321e-21 6.67705 	-0.286816 	-2.63305e-21 6.66096 	-0.288224 	0 6.64666 	-0.288894 	0 6.63767 	-0.288672 	0 6.62869 	-0.288446 	0 6.61227 	-0.289795 	0 6.59579 	-0.291145 	0 6.58258 	-0.291631 	-1.07004e-21 6.57346 	-0.291256 	-3.95993e-21 6.56434 	-0.290881 	-6.85017e-21 6.54776 	-0.292069 	-4.40441e-21 6.53111 	-0.293258 	-1.96007e-21 6.51889 	-0.293601 	-1.20073e-21 6.50972 	-0.293071 	7.95196e-22 6.50054 	-0.292542 	2.79158e-21 6.48386 	-0.293565 	-2.09018e-20 6.46785 	-0.294466 	-4.12212e-20 6.4565 	-0.294577 	-3.96951e-20 6.44677 	-0.294097 	-1.87715e-20 6.43759 	-0.293419 	8.62181e-21 6.42086 	-0.294288 	-1.96973e-20 6.40692 	-0.294677 	-3.26995e-20 6.39558 	-0.294621 	-3.15166e-20 6.38488 	-0.294333 	-2.43867e-20 6.37575 	-0.293493 	-3.09633e-21 6.35903 	-0.2942 	-6.43839e-21 6.34725 	-0.294057 	-2.70814e-21 6.33599 	-0.293825 	1.76047e-21 6.32471 	-0.293593 	6.22904e-21 6.31533 	-0.292706 	1.22236e-20 6.30029 	-0.292965 	8.22945e-21 6.28917 	-0.29255 	1.07227e-20 6.27804 	-0.292135 	1.32161e-20 6.2669 	-0.29172 	1.57098e-20 6.25665 	-0.29101 	2.04605e-20 6.24561 	-0.290815 	2.13542e-20 6.23638 	-0.290308 	1.88993e-20 6.22715 	-0.289801 	1.64446e-20 6.21792 	-0.289294 	1.39901e-20 6.20872 	-0.288788 	1.15425e-20 6.20698 	-0.288697 	1.11354e-20 6.20523 	-0.288607 	1.07283e-20 6.20348 	-0.288516 	1.03211e-20 6.20173 	-0.288426 	9.91401e-21 6.20022 	-0.288283 	9.52806e-21 6.18916 	-0.287573 	7.62728e-21 6.17818 	-0.286815 	5.47367e-21 6.16721 	-0.286058 	3.3202e-21 6.15625 	-0.2853 	1.16688e-21 6.14711 	-0.284155 	1.63207e-21 6.13584 	-0.283574 	6.71044e-22 6.12519 	-0.282652 	2.13767e-21 6.11456 	-0.281731 	3.60452e-21 6.10394 	-0.280809 	5.07158e-21 6.09672 	-0.27917 	1.25235e-20 6.0853 	-0.278697 	1.76702e-20 6.07503 	-0.277614 	1.98935e-20 6.0648 	-0.276528 	2.20948e-20 6.05554 	-0.275239 	2.22259e-20 6.04933 	-0.27331 	1.58017e-20 6.03835 	-0.272652 	2.14153e-20 6.02801 	-0.271678 	2.41852e-20 6.01824 	-0.27043 	2.44902e-20 6.01096 	-0.268666 	2.07318e-20 6.00521 	-0.266591 	1.45139e-20 5.99473 	-0.265759 	1.99541e-20 5.98437 	-0.264878 	2.46195e-20 5.97512 	-0.263488 	2.12719e-20 5.96982 	-0.261296 	1.19245e-20 5.96459 	-0.259103 	2.56802e-21 5.95467 	-0.258119 	1.3131e-21 5.94477 	-0.257135 	5.7462e-23 5.9371 	-0.255531 	-3.08229e-21 5.93235 	-0.253259 	-7.81658e-21 5.92765 	-0.250987 	-1.2554e-20 5.91835 	-0.249884 	-7.03131e-21 5.90906 	-0.248781 	-1.50976e-21 5.90284 	-0.247037 	-2.48845e-21 5.89864 	-0.24472 	-8.21255e-21 5.8945 	-0.242404 	-1.39373e-20 5.88585 	-0.241213 	1.33417e-21 5.8775 	-0.239968 	1.53512e-20 5.87258 	-0.238091 	1.43493e-20 5.86874 	-0.23584 	3.55927e-21 5.86517 	-0.233514 	-9.23346e-21 5.85719 	-0.232265 	-5.94777e-21 5.85072 	-0.23075 	-3.17974e-21 5.84638 	-0.228862 	-1.13645e-21 5.84263 	-0.226792 	0 5.83962 	-0.224496 	0 5.83232 	-0.223225 	0 5.82762 	-0.221518 	0 5.82385 	-0.219662 	0 5.82021 	-0.217779 	0 5.81776 	-0.215558 	0 5.81134 	-0.214277 	3.6854e-24 5.80808 	-0.212497 	6.49842e-23 5.80487 	-0.210717 	1.26252e-22 5.8017 	-0.208938 	1.8749e-22 5.79945 	-0.206927 	-3.90052e-22 5.79466 	-0.20557 	4.22424e-21 5.79194 	-0.203912 	1.8485e-21 5.78926 	-0.202254 	-5.22456e-22 5.78662 	-0.200596 	-2.88861e-21 5.78449 	-0.198832 	-8.39005e-21 5.7812 	-0.197484 	-6.46072e-21 5.77898 	-0.195994 	-4.89946e-21 5.7768 	-0.194504 	-3.33735e-21 5.77466 	-0.193015 	-1.77439e-21 5.77264 	-0.191511 	-2.08397e-22 5.77205 	-0.19124 	4.2544e-24 5.77164 	-0.190946 	4.56513e-22 5.77123 	-0.190653 	9.08735e-22 5.77083 	-0.19036 	1.36092e-21 5.77042 	-0.190062 	1.82003e-21 5.76921 	-0.189075 	3.77122e-21 5.76801 	-0.188089 	5.7196e-21 5.76684 	-0.187103 	7.66517e-21 5.76568 	-0.186117 	9.60791e-21 5.76471 	-0.185065 	7.74529e-21 5.76363 	-0.184086 	3.82861e-21 5.76245 	-0.183068 	1.02113e-22 5.76129 	-0.182049 	-3.62227e-21 5.76016 	-0.181032 	-7.34453e-21 5.75937 	-0.179892 	-1.10584e-20 5.75881 	-0.179261 	-1.66085e-20 5.75797 	-0.178563 	-1.75369e-20 5.75715 	-0.177864 	-1.84617e-20 5.75634 	-0.177167 	-1.93829e-20 5.75593 	-0.176325 	-1.00044e-20 5.75584 	-0.176077 	-4.87497e-21 5.75527 	-0.17576 	-1.62726e-21 5.75471 	-0.175443 	1.62046e-21 5.75416 	-0.175127 	4.86819e-21 5.754 	-0.174672 	6.58479e-21 5.75431 	-0.174844 	1.78877e-20 5.75397 	-0.174962 	1.87309e-20 5.75361 	-0.175079 	1.9242e-20 5.7533 	-0.175177 	1.76961e-20 5.75322 	-0.175188 	6.22395e-21 5.75372 	-0.175796 	4.46313e-21 5.75372 	-0.176378 	2.73231e-21 5.75349 	-0.176951 	1.0138e-21 5.75333 	-0.177489 	-1.38651e-21 5.75326 	-0.177978 	-4.76747e-21 5.7539 	-0.179027 	-1.71174e-21 5.75419 	-0.180072 	0 5.75404 	-0.181111 	0 5.75391 	-0.182117 	-2.22574e-21 5.75378 	-0.183105 	-5.63888e-21 5.75449 	-0.18462 	-2.56475e-21 5.75504 	-0.186136 	2.54873e-22 5.75489 	-0.187664 	1.79629e-21 5.75467 	-0.18918 	6.46947e-21 5.7544 	-0.190693 	1.14872e-20 5.7551 	-0.192705 	1.97788e-20 5.75575 	-0.194715 	2.80714e-20 5.7556 	-0.196748 	2.8309e-20 5.75518 	-0.198791 	2.10403e-20 5.7547 	-0.200832 	1.37726e-20 5.75531 	-0.203347 	1.47171e-20 5.75586 	-0.205861 	1.56637e-20 5.75574 	-0.208406 	1.24988e-20 5.75503 	-0.210982 	5.17908e-21 5.75427 	-0.213556 	-2.13952e-21 5.7547 	-0.216584 	-1.44432e-20 5.75506 	-0.219608 	-2.67443e-20 5.75487 	-0.222677 	-2.93867e-20 5.75382 	-0.225789 	-1.95173e-20 5.75269 	-0.2289 	-9.64962e-21 5.75286 	-0.232446 	7.03051e-21 5.75294 	-0.23599 	2.31315e-20 5.75251 	-0.239594 	2.16715e-20 5.75114 	-0.243241 	4.72571e-21 5.74957 	-0.246891 	-1.41736e-20 5.74941 	-0.25096 	-3.67572e-20 5.74896 	-0.255053 	-4.78998e-20 5.74808 	-0.259192 	-3.90612e-20 5.74661 	-0.263355 	-2.06678e-20 5.74452 	-0.267543 	7.45838e-21 5.74394 	-0.272137 	8.09039e-21 5.74282 	-0.276789 	1.01351e-20 5.74142 	-0.281461 	1.273e-20 5.73984 	-0.286133 	1.55151e-20 5.73716 	-0.290855 	2.11678e-20 5.73601 	-0.295983 	2.96434e-20 5.73414 	-0.301188 	2.94364e-20 5.73213 	-0.306388 	2.9223e-20 5.73001 	-0.311583 	2.90032e-20 5.72713 	-0.316807 	2.40843e-20 5.72508 	-0.322493 	2.35451e-20 5.72254 	-0.328217 	2.67835e-20 5.71986 	-0.333936 	3.00466e-20 5.71704 	-0.33965 	3.33345e-20 5.71405 	-0.345363 	3.68311e-20 5.71394 	-0.345597 	3.71102e-20 5.71382 	-0.345833 	3.6983e-20 5.71371 	-0.346068 	3.68558e-20 5.71359 	-0.346304 	3.67286e-20 5.71347 	-0.346537 	3.66022e-20 5.71068 	-0.352498 	3.37878e-20 5.70776 	-0.358453 	3.09488e-20 5.7047 	-0.364402 	2.80851e-20 5.70151 	-0.370345 	2.51968e-20 5.69779 	-0.376337 	2.03941e-20 5.69478 	-0.382