# vtk DataFile Version 2.0
track0
ASCII
DATASET POLYDATA
POINTS 10885 double
-0.0205 0.001 1e-05
-0.0202034 0.00100022 1e-05
-0.0199069 0.00100067 1e-05
-0.0196103 0.00100132 1e-05
-0.0193137 0.00100216 1e-05
-0.0190172 0.0010032 1e-05
-0.0187132 0.00100461 1e-05
-0.0184093 0.00100572 1e-05
-0.0181054 0.00100681 1e-05
-0.0178015 0.00100785 1e-05
-0.0174976 0.00100886 1e-05
-0.0172058 0.00101001 1e-05
-0.016914 0.00101082 1e-05
-0.0166222 0.0010116 1e-05
-0.0163305 0.00101236 1e-05
-0.0160387 0.00101308 1e-05
-0.0157586 0.00101395 1e-05
-0.0154784 0.00101463 1e-05
-0.0151983 0.00101536 1e-05
-0.0149182 0.00101612 1e-05
-0.0146381 0.00101692 1e-05
-0.0143692 0.00101784 1e-05
-0.0141002 0.00101869 1e-05
-0.0138313 0.0010196 1e-05
-0.0135624 0.00102056 1e-05
-0.0132934 0.00102157 1e-05
-0.0130398 0.00102262 1e-05
-0.0127862 0.00102366 1e-05
-0.0125326 0.00102474 1e-05
-0.0122789 0.00102585 1e-05
-0.0120666 0.00102682 1e-05
-0.0120538 0.00102688 1e-05
-0.012041 0.00102694 1e-05
-0.0120282 0.001027 1e-05
-0.0120154 0.00102706 1e-05
-0.0120025 0.00102712 1e-05
-0.0117547 0.00102828 1e-05
-0.0115068 0.00102947 1e-05
-0.0112589 0.00103068 1e-05
-0.0110111 0.00103192 1e-05
-0.0107632 0.00103318 1e-05
-0.0105252 0.00103441 1e-05
-0.0102873 0.00103565 1e-05
-0.0100493 0.00103692 1e-05
-0.00981133 0.00103819 1e-05
-0.00957337 0.00103948 1e-05
-0.00934491 0.00104072 1e-05
-0.00911645 0.00104198 1e-05
-0.008888 0.00104324 1e-05
-0.00865954 0.00104452 1e-05
-0.00843108 0.0010458 1e-05
-0.00821175 0.00104702 1e-05
-0.00799242 0.00104826 1e-05
-0.00777309 0.0010495 1e-05
-0.00755376 0.00105074 1e-05
-0.00733443 0.00105199 1e-05
-0.00712387 0.00105317 1e-05
-0.0069133 0.00105437 1e-05
-0.00670273 0.00105556 1e-05
-0.00649217 0.00105676 1e-05
-0.0062816 0.00105796 1e-05
-0.00607944 0.00105909 1e-05
-0.00587729 0.00106023 1e-05
-0.00567514 0.00106137 1e-05
-0.00547298 0.00106251 1e-05
-0.00527083 0.00106365 1e-05
-0.00507675 0.00106471 1e-05
-0.00488267 0.0010658 1e-05
-0.0046886 0.00106687 1e-05
-0.00449452 0.00106795 1e-05
-0.00430044 0.00106902 1e-05
-0.00411412 0.00107002 1e-05
-0.0039278 0.00107104 1e-05
-0.00374147 0.00107205 1e-05
-0.00355515 0.00107305 1e-05
-0.00336883 0.00107405 1e-05
-0.00318995 0.00107499 1e-05
-0.00301107 0.00107593 1e-05
-0.00283219 0.00107687 1e-05
-0.00265331 0.0010778 1e-05
-0.00247443 0.00107872 1e-05
-0.0023027 0.00107959 1e-05
-0.00213097 0.00108046 1e-05
-0.00195924 0.00108132 1e-05
-0.0017875 0.00108217 1e-05
-0.00161577 0.00108301 1e-05
-0.0014509 0.0010838 1e-05
-0.00128603 0.00108459 1e-05
-0.00112116 0.00108536 1e-05
-0.000956289 0.00108612 1e-05
-0.000791418 0.00108686 1e-05
-0.000633135 0.00108755 1e-05
-0.000474851 0.00108823 1e-05
-0.000316567 0.00108889 1e-05
-0.000158283 0.00108953 1e-05
0 0.00109015 1e-05
0.000105677 0.00109055 1e-05
0.000211355 0.00109094 1e-05
0.000317032 0.00109131 1e-05
0.00042271 0.00109168 1e-05
0.000528387 0.00109203 1e-05
0.000634886 0.00109237 1e-05
0.000741385 0.0010927 1e-05
0.000847885 0.00109303 1e-05
0.000954384 0.00109334 1e-05
0.00106088 0.00109365 1e-05
0.00116821 0.00109394 1e-05
0.00127554 0.00109423 1e-05
0.00138286 0.00109452 1e-05
0.00149019 0.00109479 1e-05
0.00159752 0.00109505 1e-05
0.00170568 0.0010953 1e-05
0.00181384 0.00109555 1e-05
0.001922 0.0010958 1e-05
0.00203016 0.00109603 1e-05
0.00213833 0.00109625 1e-05
0.00224733 0.00109645 1e-05
0.00235633 0.00109666 1e-05
0.00246533 0.00109686 1e-05
0.00257434 0.00109705 1e-05
0.00268334 0.00109724 1e-05
0.00279319 0.00109741 1e-05
0.00290304 0.00109758 1e-05
0.00301289 0.00109775 1e-05
0.00312274 0.00109791 1e-05
0.00323259 0.00109807 1e-05
0.00334329 0.00109821 1e-05
0.003454 0.00109835 1e-05
0.0035647 0.00109849 1e-05
0.0036754 0.00109863 1e-05
0.00378611 0.00109876 1e-05
0.00389767 0.00109888 1e-05
0.00400924 0.001099 1e-05
0.0041208 0.00109912 1e-05
0.00423237 0.00109923 1e-05
0.00434393 0.00109934 1e-05
0.00445636 0.00109944 1e-05
0.00456879 0.00109954 1e-05
0.00468123 0.00109963 1e-05
0.00479366 0.00109972 1e-05
0.00490609 0.00109981 1e-05
0.0050194 0.00109989 1e-05
0.0051327 0.00109996 1e-05
0.00524601 0.00110004 1e-05
0.00535931 0.00110011 1e-05
0.00547262 0.00110017 1e-05
0.00558681 0.00110023 1e-05
0.005701 0.00110028 1e-05
0.00581518 0.00110034 1e-05
0.00592937 0.00110038 1e-05
0.00604356 0.00110043 1e-05
0.00612222 0.00110045 1e-05
0.00620088 0.00110048 1e-05
0.00627954 0.0011005 1e-05
0.0063582 0.00110052 1e-05
0.00643529 0.00110054 1e-05
0.00647202 0.00110054 1e-05
0.00650874 0.00110055 1e-05
0.00654547 0.00110056 1e-05
0.0065822 0.00110057 1e-05
0.00661893 0.00110057 1e-05
0.0067349 0.00110059 1e-05
0.00685087 0.0011006 1e-05
0.00696684 0.00110061 1e-05
0.00708281 0.00110061 1e-05
0.00719878 0.00110061 1e-05
0.00731565 0.00110061 1e-05
0.00743252 0.0011006 1e-05
0.00754939 0.00110058 1e-05
0.00766626 0.00110056 1e-05
0.00778313 0.00110054 1e-05
0.00790091 0.00110051 1e-05
0.00801869 0.00110047 1e-05
0.00813647 0.00110044 1e-05
0.00825425 0.00110039 1e-05
0.00837203 0.00110035 1e-05
0.00849073 0.00110028 1e-05
0.00860942 0.00110023 1e-05
0.00872812 0.00110017 1e-05
0.00884682 0.0011001 1e-05
0.00896551 0.00110003 1e-05
0.00908513 0.00109993 1e-05
0.00920475 0.00109985 1e-05
0.00932437 0.00109976 1e-05
0.00944398 0.00109967 1e-05
0.0095636 0.00109957 1e-05
0.00968415 0.00109945 1e-05
0.0098047 0.00109934 1e-05
0.00992525 0.00109922 1e-05
0.0100458 0.0010991 1e-05
0.0101663 0.00109898 1e-05
0.0102878 0.00109882 1e-05
0.0104093 0.00109868 1e-05
0.0105308 0.00109854 1e-05
0.0106523 0.00109839 1e-05
0.0107738 0.00109823 1e-05
0.0108962 0.00109804 1e-05
0.0110186 0.00109787 1e-05
0.0111411 0.0010977 1e-05
0.0112635 0.00109752 1e-05
0.0113859 0.00109733 1e-05
0.0115093 0.00109711 1e-05
0.0116327 0.0010969 1e-05
0.0117561 0.0010967 1e-05
0.0118795 0.00109649 1e-05
0.0120028 0.00109627 1e-05
0.0121272 0.00109601 1e-05
0.0122515 0.00109577 1e-05
0.0123759 0.00109553 1e-05
0.0125002 0.00109528 1e-05
0.0126245 0.00109503 1e-05
0.0127498 0.00109473 1e-05
0.0128752 0.00109446 1e-05
0.0130005 0.00109419 1e-05
0.0131258 0.0010939 1e-05
0.0132511 0.00109362 1e-05
0.0133774 0.00109328 1e-05
0.0135036 0.00109297 1e-05
0.0136299 0.00109266 1e-05
0.0137562 0.00109234 1e-05
0.0138825 0.00109201 1e-05
0.0140098 0.00109163 1e-05
0.014137 0.00109128 1e-05
0.0142643 0.00109093 1e-05
0.0143915 0.00109057 1e-05
0.0145188 0.0010902 1e-05
0.0146471 0.00108978 1e-05
0.0147753 0.00108939 1e-05
0.0149036 0.001089 1e-05
0.0150318 0.0010886 1e-05
0.0151601 0.00108818 1e-05
0.0152893 0.00108773 1e-05
0.0154186 0.00108729 1e-05
0.0155478 0.00108685 1e-05
0.0156771 0.00108641 1e-05
0.0158063 0.00108595 1e-05
0.0159366 0.00108546 1e-05
0.0160668 0.00108497 1e-05
0.0161971 0.00108449 1e-05
0.0163274 0.00108401 1e-05
0.0164576 0.0010835 1e-05
0.0165889 0.00108296 1e-05
0.0167201 0.00108244 1e-05
0.0168514 0.00108191 1e-05
0.0169827 0.00108138 1e-05
0.0171139 0.00108083 1e-05
0.0172462 0.00108025 1e-05
0.0173785 0.00107967 1e-05
0.0175108 0.0010791 1e-05
0.0176431 0.00107852 1e-05
0.0177754 0.00107792 1e-05
0.0179087 0.0010773 1e-05
0.018042 0.00107668 1e-05
0.0181753 0.00107606 1e-05
0.0183087 0.00107543 1e-05
0.018442 0.00107478 1e-05
0.0185763 0.00107411 1e-05
0.0187107 0.00107344 1e-05
0.018845 0.00107277 1e-05
0.0189794 0.00107209 1e-05
0.0191137 0.0010714 1e-05
0.0192491 0.00107069 1e-05
0.0193845 0.00106997 1e-05
0.0195199 0.00106925 1e-05
0.0196553 0.00106852 1e-05
0.0197907 0.00106777 1e-05
0.0199272 0.00106701 1e-05
0.0200636 0.00106624 1e-05
0.0202001 0.00106547 1e-05
0.0203365 0.00106468 1e-05
0.020473 0.00106389 1e-05
0.0206105 0.00106308 1e-05
0.020748 0.00106227 1e-05
0.0208855 0.00106144 1e-05
0.021023 0.0010606 1e-05
0.0211606 0.00105976 1e-05
0.0212991 0.0010589 1e-05
0.0214377 0.00105803 1e-05
0.0215763 0.00105715 1e-05
0.0217149 0.00105626 1e-05
0.0218535 0.00105537 1e-05
0.0219931 0.00105447 1e-05
0.0221328 0.00105355 1e-05
0.0222724 0.00105261 1e-05
0.0224121 0.00105166 1e-05
0.0225517 0.00105072 1e-05
0.0226925 0.00104977 1e-05
0.0228332 0.0010488 1e-05
0.022974 0.00104781 1e-05
0.0231147 0.00104681 1e-05
0.0232555 0.00104581 1e-05
0.0233973 0.00104481 1e-05
0.0235391 0.00104379 1e-05
0.023681 0.00104274 1e-05
0.0238228 0.00104169 1e-05
0.0239647 0.00104064 1e-05
0.0241076 0.00103959 1e-05
0.0242505 0.00103852 1e-05
0.0243935 0.00103742 1e-05
0.0245364 0.00103631 1e-05
0.0246794 0.00103521 1e-05
0.0248234 0.00103411 1e-05
0.0249675 0.00103298 1e-05
0.0251115 0.00103183 1e-05
0.0252556 0.00103067 1e-05
0.0253996 0.00102952 1e-05
0.0255448 0.00102837 1e-05
0.02569 0.00102719 1e-05
0.0258351 0.00102598 1e-05
0.0259803 0.00102477 1e-05
0.0261255 0.00102357 1e-05
0.0262718 0.00102236 1e-05
0.0264181 0.00102113 1e-05
0.0265644 0.00101987 1e-05
0.0267107 0.00101861 1e-05
0.026857 0.00101735 1e-05
0.0270044 0.0010161 1e-05
0.0271519 0.00101481 1e-05
0.0272993 0.0010135 1e-05
0.0274468 0.00101219 1e-05
0.0275942 0.00101088 1e-05
0.0277428 0.00100957 1e-05
0.0278914 0.00100823 1e-05
0.0280399 0.00100687 1e-05
0.0281885 0.00100551 1e-05
0.0283371 0.00100414 1e-05
0.0284869 0.00100278 1e-05
0.0286366 0.00100138 1e-05
0.0287863 0.000999971 1e-05
0.0289361 0.000998554 1e-05
0.0290858 0.000997133 1e-05
0.0292367 0.000995717 1e-05
0.0293876 0.000994265 1e-05
0.0295385 0.000992802 1e-05
0.0296894 0.000991332 1e-05
0.0298403 0.000989856 1e-05
0.0299924 0.000988383 1e-05
0.0301445 0.000986875 1e-05
0.0302966 0.000985359 1e-05
0.0304486 0.000983836 1e-05
0.0306007 0.000982304 1e-05
0.030754 0.000980774 1e-05
0.0309072 0.000979212 1e-05
0.0310605 0.000977643 1e-05
0.0312138 0.000976065 1e-05
0.031367 0.000974479 1e-05
0.0315215 0.000972891 1e-05
0.0316759 0.000971274 1e-05
0.0318304 0.000969649 1e-05
0.0319848 0.000968016 1e-05
0.0321393 0.000966375 1e-05
0.0322949 0.000964727 1e-05
0.0324506 0.000963054 1e-05
0.0326062 0.000961373 1e-05
0.0327619 0.000959683 1e-05
0.0329175 0.000957985 1e-05
0.0330744 0.000956275 1e-05
0.0332313 0.000954544 1e-05
0.0333881 0.000952805 1e-05
0.033545 0.000951056 1e-05
[...]
POINT_DATA 10885
 FIELD attributes 2
p 1 10885 float
-5.21512 -5.21064 -5.20311 -5.1955 -5.18779 -5.17546 -5.18182 -5.19339 -5.20496 -5.21653 -5.24199 -5.26165 -5.29439 -5.32713 -5.35987 -5.39944 -5.41389 -5.43952 -5.46515 -5.49079 -5.52165 -5.54057 -5.5656 -5.59065 -5.61572 -5.64332 -5.66667 -5.69207 -5.71747 -5.74288 -5.76416 -5.76545 -5.76673 -5.76802 -5.76931 -5.77055 -5.79345 -5.81632 -5.8392 -5.86208 -5.88411 -5.90382 -5.92299 -5.94216 -5.96133 -5.97914 -5.9969 -6.01383 -6.03075 -6.04768 -6.06306 -6.07975 -6.09544 -6.11114 -6.12684 -6.14093 -6.15677 -6.17155 -6.18633 -6.20111 -6.2143 -6.2294 -6.24346 -6.25752 -6.27158 -6.28416 -6.29872 -6.31234 -6.32596 -6.33959 -6.35189 -6.36616 -6.37968 -6.39319 -6.4067 -6.41906 -6.4333 -6.44697 -6.46063 -6.4743 -6.48692 -6.50136 -6.51558 -6.52979 -6.54401 -6.55721 -6.57194 -6.58669 -6.60144 -6.61619 -6.62949 -6.64269 -6.65506 -6.66742 -6.67978 -6.6899 -6.69756 -6.70344 -6.70932 -6.7152 -6.71968 -6.72328 -6.7248 -6.72631 -6.72783 -6.7286 -6.73092 -6.73236 -6.7338 -6.73523 -6.73662 -6.74092 -6.74348 -6.74604 -6.7486 -6.74993 -6.75466 -6.7566 -6.75854 -6.76048 -6.76022 -6.76405 -6.76527 -6.76649 -6.76772 -6.76674 -6.76989 -6.77106 -6.77223 -6.7734 -6.77281 -6.7754 -6.77657 -6.77773 -6.7789 -6.77883 -6.78066 -6.78153 -6.78241 -6.78328 -6.78341 -6.78448 -6.785 -6.78552 -6.78604 -6.78621 -6.78678 -6.7871 -6.78743 -6.78775 -6.78798 -6.78822 -6.78839 -6.78856 -6.78873 -6.78889 -6.78897 -6.78905 -6.78913 -6.78921 -6.78928 -6.7895 -6.78971 -6.78991 -6.79011 -6.79023 -6.79049 -6.79068 -6.79086 -6.79105 -6.79113 -6.79141 -6.79163 -6.79185 -6.79207 -6.79226 -6.79248 -6.79277 -6.79307 -6.79336 -6.79383 -6.79388 -6.79425 -6.79463 -6.79501 -6.79589 -6.79565 -6.79611 -6.79658 -6.79705 -6.79848 -6.79783 -6.7984 -6.79896 -6.79953 -6.80163 -6.8005 -6.80118 -6.80185 -6.80253 -6.80541 -6.80373 -6.80453 -6.80533 -6.80613 -6.80986 -6.80761 -6.80854 -6.80947 -6.81041 -6.81505 -6.81221 -6.81328 -6.81435 -6.81543 -6.82095 -6.81772 -6.81874 -6.81995 -6.82164 -6.8276 -6.82434 -6.82504 -6.82642 -6.8288 -6.83514 -6.83201 -6.83239 -6.83394 -6.83701 -6.84357 -6.84062 -6.84065 -6.84235 -6.84607 -6.85273 -6.85001 -6.84972 -6.85156 -6.8559 -6.86265 -6.86023 -6.85968 -6.86169 -6.86665 -6.87344 -6.87145 -6.87075 -6.87294 -6.87842 -6.88515 -6.88364 -6.88287 -6.88523 -6.89111 -6.89767 -6.89662 -6.89584 -6.89835 -6.90453 -6.91091 -6.91033 -6.90975 -6.91249 -6.91867 -6.92485 -6.92474 -6.92463 -6.92752 -6.9335 -6.93948 -6.93984 -6.9402 -6.94324 -6.94901 -6.95479 -6.95561 -6.95644 -6.95962 -6.96519 -6.97076 -6.97203 -6.9733 -6.97662 -6.982 -6.98738 -6.98907 -6.99077 -6.99421 -6.99941 -7.00461 -7.0067 -7.00879 -7.01236 -7.01739 -7.02243 -7.02488 -7.02734 -7.03102 -7.03592 -7.04082 -7.0436 -7.04644 -7.05026 -7.05496 -7.05974 -7.06283 -7.06606 -7.06998 -7.0745 -7.07918 -7.08253 -7.08609 -7.0901 -7.09449 -7.09911 -7.10269 -7.10651 -7.1106 -7.11493 -7.11949 -7.12328 -7.1273 -7.13148 -7.13578 -7.14032 -7.14429 -7.14846 -7.15272 -7.15703 -7.16157 -7.16571 -7.17001 -7.17433 -7.17867 -7.1832 -7.18751 -7.1919 -7.19629 -7.20069 -7.20518 -7.20962 -7.21407 -7.21852 -7.22297 -7.22743 -7.23194 -7.23644 -7.24093 -7.24542 -7.24989 -7.25444 -7.25896 -7.26349 -7.26801 -7.2725 -7.27707 -7.28162 -7.28616 -7.29071 -7.29524 -7.29981 -7.30437 -7.30892 -7.31348 -7.31803 -7.32168 -7.32533 -7.32898 -7.33263 -7.33617 -7.3371 -7.33804 -7.33897 -7.3399 -7.34084 -7.34539 -7.34994 -7.3545 -7.35905 -7.36365 -7.36815 -7.37268 -7.3772 -7.38173 -7.38633 -7.39078 -7.39527 -7.39976 -7.40425 -7.40882 -7.41322 -7.41765 -7.42209 -7.42653 -7.43106 -7.43538 -7.43975 -7.44412 -7.44849 -7.45295 -7.45721 -7.46149 -7.46577 -7.47006 -7.47443 -7.4786 -7.48278 -7.48696 -7.49115 -7.4954 -7.49947 -7.50353 -7.50759 -7.51166 -7.51577 -7.51972 -7.52366 -7.52757 -7.5315 -7.53544 -7.53926 -7.54305 -7.5468 -7.55056 -7.55431 -7.55796 -7.5616 -7.56517 -7.56871 -7.57226 -7.57572 -7.57918 -7.58253 -7.58585 -7.58916 -7.59241 -7.59565 -7.59879 -7.60186 -7.60493 -7.60793 -7.61094 -7.61384 -7.61664 -7.61944 -7.62218 -7.62493 -7.62756 -7.63006 -7.63256 -7.63501 -7.63746 -7.63981 -7.64199 -7.64416 -7.6463 -7.64843 -7.65045 -7.65229 -7.65412 -7.65591 -7.65767 -7.65932 -7.66083 -7.66226 -7.66368 -7.66502 -7.66628 -7.66743 -7.66845 -7.66945 -7.67034 -7.67117 -7.67194 -7.67251 -7.67308 -7.67346 -7.67383 -7.6742 -7.67429 -7.67436 -7.67423 -7.67411 -7.67398 -7.67364 -7.67315 -7.67249 -7.67184 -7.67119 -7.67039 -7.66928 -7.66807 -7.66685 -7.66564 -7.66437 -7.66309 -7.66177 -7.66045 -7.65913 -7.65787 -7.65738 -7.6569 -7.65641 -7.65593 -7.65542 -7.65306 -7.65067 -7.64828 -7.64589 -7.64338 -7.6405 -7.63744 -7.6344 -7.63135 -7.62806 -7.62463 -7.62089 -7.61715 -7.61341 -7.60929 -7.6053 -7.60083 -7.59637 -7.59184 -7.58689 -7.58219 -7.5771 -7.57187 -7.56644 -7.5607 -7.55522 -7.54951 -7.54349 -7.5371 -7.53054 -7.52424 -7.51791 -7.51106 -7.50365 -7.49624 -7.4891 -7.48197 -7.47424 -7.46593 -7.45763 -7.44961 -7.4416 -7.433 -7.42377 -7.41455 -7.40562 -7.3967 -7.38718 -7.37701 -7.36683 -7.35696 -7.34694 -7.33641 -7.32547 -7.31431 -7.30347 -7.29223 -7.2807 -7.26901 -7.25684 -7.245 -7.23249 -7.21993 -7.20738 -7.19426 -7.18119 -7.16757 -7.15395 -7.14034 -7.12643 -7.11201 -7.09731 -7.08261 -7.06791 -7.05322 -7.05285 -7.05248 -7.05211 -7.05174 -7.05137 -7.03607 -7.02076 -7.00547 -6.99018 -6.97463 -6.95811 -6.94132 -6.92454 -6.90776 -6.89043 -6.87305 -6.85512 -6.8372 -6.81912 -6.80047 -6.78196 -6.76315 -6.74406 -6.72448 -6.70465 -6.68496 -6.66527 -6.64493 -6.6239 -6.60286 -6.58197 -6.56109 -6.53952 -6.51726 -6.495 -6.4729 -6.45078 -6.42789 -6.40449 -6.381 -6.35767 -6.33393 -6.30979 -6.28551 -6.26078 -6.23621 -6.21081 -6.18541 -6.16003 -6.13427 -6.10917 -6.08366 -6.05815 -6.03265 -6.00884 -6.00736 -6.00588 -6.0044 -6.00292 -6.00142 -5.97359 -5.94576 -5.91793 -5.89012 -5.86197 -5.83312 -5.80402 -5.77493 -5.74581 -5.71611 -5.68611 -5.65587 -5.62552 -5.59479 -5.56382 -5.53254 -5.50127 -5.46957 -5.43733 -5.40508 -5.37254 -5.34 -5.30694 -5.27342 -5.23991 -5.2061 -5.1721 -5.13767 -5.10308 -5.06831 -5.03324 -4.99761 -4.96192 -4.92624 -4.89033 -4.86029 -4.82994 -4.7996 -4.76926 -4.74052 -4.73363 -4.72675 -4.71986 -4.71297 -4.706 -4.66798 -4.62992 -4.59187 -4.55384 -4.51528 -4.47633 -4.43707 -4.39782 -4.35833 -4.31838 -4.27824 -4.23805 -4.19761 -4.1565 -4.11537 -4.07404 -4.03274 -3.99091 -3.94863 -3.90635 -3.86388 -3.8212 -3.77808 -3.73487 -3.69146 -3.64786 -3.60362 -3.55938 -3.51516 -3.47082 -3.45222 -3.43343 -3.41465 -3.39587 -3.37756 -3.35099 -3.32442 -3.29785 -3.27129 -3.24444 -3.19831 -3.15203 -3.10577 -3.05944 -3.0125 -2.96546 -2.91832 -2.87105 -2.82324 -2.7753 -2.72726 -2.67923 -2.63076 -2.58189 -2.53301 -2.48401 -2.43482 -2.38524 -2.33562 -2.28583 -2.23586 -2.18539 -2.13493 -2.08448 -2.03397 -2.02637 -2.0187 -2.01103 -2.00337 -1.99576 -1.95216 -1.90857 -1.86498 -1.8214 -1.77741 -1.72551 -1.67348 -1.62145 -1.56918 -1.51658 -1.46392 -1.41128 -1.35839 -1.3051 -1.25179 -1.19841 -1.14501 -1.09116 -1.03725 -0.983267 -0.929219 -0.874754 -0.820264 -0.765784 -0.711241 -0.69719 -0.683048 -0.668907 -0.654766 -0.640822 -0.599851 -0.558887 -0.517928 -0.476975 -0.435712 -0.38016 -0.324567 -0.268984 -0.213212 -0.1572 -0.101153 -0.0451174 0.0110487 0.0674304 0.12385 0.180315 0.236854 0.293612 0.350359 0.407144 0.457764 0.508598 0.559424 0.610243 0.658774 0.665506 0.672238 0.67897 0.685701 0.692468 0.749896 0.807311 0.864717 0.92212 0.979833 1.03753 1.0952 1.15284 1.21068 1.26858 1.32648 1.38436 1.4424 1.50038 1.55839 1.61642 1.67455 1.73269 1.79081 1.84896 1.85639 1.86384 1.87128 1.87873 1.88613 1.93695 1.98776 2.03857 2.08937 2.1403 2.19866 2.25695 2.31517 2.37344 2.43177 2.49008 2.54837 2.60666 2.66482 2.72301 2.78119 2.83933 2.89744 2.95556 3.0137 3.01762 3.02153 3.02544 3.02935 3.03325 3.0874 3.14154 3.19567 3.2498 3.30391 3.36189 3.4198 3.47758 3.53524 3.59295 3.65062 3.70827 3.76576 3.82314 3.88048 3.9242 3.96778 4.01133 4.05489 4.09717 4.11101 4.12484 4.13868 4.15251 4.1663 4.22325 4.2801 4.33694 4.39369 4.45035 4.50694 4.56351 4.61982 4.67588 4.73198 4.78802 4.84388 4.8996 4.95531 5.01093 5.0249 5.03879 5.05267 5.06655 5.08032 5.12176 5.16321 5.20464 5.24605 5.28728 5.34225 5.3971 5.45179 5.50614 5.56053 5.6148 5.66902 5.72289 5.77667 5.83031 5.86199 5.89347 5.9249 5.95633 5.98733 6.00922 6.03111 6.05301 6.07487 6.09662 6.14949 6.20211 6.25473 6.30709 6.35932 6.4114 6.46347 6.51517 6.56653 6.6179 6.65989 6.70157 6.74317 6.78476 6.82591 6.8352 6.84449 6.85378 6.86305 6.87225 6.92257 6.97276 7.02294 7.07289 7.12257 7.17212 7.22167 7.27081 7.31951 7.36822 7.4094 7.45022 7.49092 7.53162 7.57225 7.57964 7.58704 7.59444 7.60181 7.60912 7.65667 7.7041 7.75153 7.79871 7.84556 7.89227 7.93899 7.98526 8.03107 8.07688 8.11347 8.14971 8.18582 8.22193 8.2584 8.26737 8.27634 8.2853 8.29424 8.30309 8.34767 8.3921 8.43654 8.48066 8.52446 8.56811 8.61176 8.65493 8.69769 8.74039 8.7722 8.80368 8.83503 8.86639 8.89841 8.90895 8.91949 8.93004 8.94055 8.95094 8.99238 9.03362 9.07487 9.11578 9.15638 9.1968 9.23721 9.27714 9.31668 9.35614 9.38592 9.41535 9.44467 9.47399 9.50434 9.51357 9.52281 9.53204 9.54124 9.55033 9.58844 9.62638 9.66432 9.70196 9.73927 9.77635 9.81343 9.85006 9.88625 9.92239 9.95541 9.988 10.0205 10.053 10.0875 10.0899 10.0924 10.0948 10.0973 10.0997 10.1343 10.1689 10.2034 10.2379 10.2719 10.3055 10.3392 10.3725 10.4053 10.4381 10.4706 10.5029 10.5349 10.5669 10.5986 10.6108 10.6227 10.6346 10.6466 10.659 10.678 10.697 10.716 10.735 10.7537 10.784 10.814 10.844 10.8738 10.9035 10.9328 10.962 10.9906 11.0184 11.0461 11.0734 11.1015 11.13 11.1584 11.187 11.2006 11.2112 11.2217 11.2323 11.2441 11.2559 11.2678 11.2796 11.2915 11.3007 11.3208 11.3456 11.3705 11.3979 11.4347 11.4709 11.507 11.5283 11.535 11.5417 11.5476 11.5572 11.5695 11.5817 11.595 11.5975 11.5997 11.602 11.6042 11.6065 11.6183 11.6301 11.6418 11.6534 11.6643 11.6766 11.6887 11.6992 11.7081 11.7169 11.7247 11.732 11.7383 11.7446 11.7499 11.7518 11.753 11.754 11.7551 11.7562 11.758 11.7598 11.7615 11.7631 11.764 11.7643 11.763 11.7618 11.7593 11.756 11.751 11.746 11.7391 11.7302 11.7212 11.7103 11.6976 11.6841 11.6704 11.6557 11.6489 11.6411 11.6333 11.6254 11.6169 11.6051 11.5933 11.5815 11.5696 11.5563 11.5313 11.5042 11.477 11.4483 11.418 11.3845 11.3509 11.3141 11.2743 11.2343 11.191 11.1469 11.0995 11.0502 10.9995 10.945 10.8863 10.8272 10.768 10.7072 10.678 10.647 10.6161 10.5851 10.5502 10.5108 10.4713 10.4318 10.3922 10.3507 10.2682 10.1834 10.0984 10.013 9.92257 9.82665 9.7275 9.62578 9.51916 9.41042 9.29561 9.18073 9.06024 8.93452 8.80868 8.67628 8.54381 8.40068 8.24673 8.09263 7.93103 7.76859 7.60501 7.44078 7.27532 7.10206 6.90054 6.6964 6.49231 6.26924 6.04112 5.83122 5.62126 5.41125 5.20592 5.11654 5.00684 4.89721 4.78764 4.66258 4.4696 4.27641 4.08301 3.88942 3.66354 3.35024 3.09575 2.84051 2.58456 2.47211 2.37563 1.94811 1.52587 0.941792 0