# vtk DataFile Version 2.0
track0
ASCII
DATASET POLYDATA
POINTS 10885 double
-0.0205 0.001 1e-05
-0.0202034 0.00100022 1e-05
-0.0199069 0.00100067 1e-05
-0.0196103 0.00100132 1e-05
-0.0193137 0.00100216 1e-05
-0.0190172 0.0010032 1e-05
-0.0187132 0.00100461 1e-05
-0.0184093 0.00100572 1e-05
-0.0181054 0.00100681 1e-05
-0.0178015 0.00100785 1e-05
-0.0174976 0.00100886 1e-05
-0.0172058 0.00101001 1e-05
-0.016914 0.00101082 1e-05
-0.0166222 0.0010116 1e-05
-0.0163305 0.00101236 1e-05
-0.0160387 0.00101308 1e-05
-0.0157586 0.00101395 1e-05
-0.0154784 0.00101463 1e-05
-0.0151983 0.00101536 1e-05
-0.0149182 0.00101612 1e-05
-0.0146381 0.00101692 1e-05
-0.0143692 0.00101784 1e-05
-0.0141002 0.00101869 1e-05
-0.0138313 0.0010196 1e-05
-0.0135624 0.00102056 1e-05
-0.0132934 0.00102157 1e-05
-0.0130398 0.00102262 1e-05
-0.0127862 0.00102366 1e-05
-0.0125326 0.00102474 1e-05
-0.0122789 0.00102585 1e-05
-0.0120666 0.00102682 1e-05
-0.0120538 0.00102688 1e-05
-0.012041 0.00102694 1e-05
-0.0120282 0.001027 1e-05
-0.0120154 0.00102706 1e-05
-0.0120025 0.00102712 1e-05
-0.0117547 0.00102828 1e-05
-0.0115068 0.00102947 1e-05
-0.0112589 0.00103068 1e-05
-0.0110111 0.00103192 1e-05
-0.0107632 0.00103318 1e-05
-0.0105252 0.00103441 1e-05
-0.0102873 0.00103565 1e-05
-0.0100493 0.00103692 1e-05
-0.00981133 0.00103819 1e-05
-0.00957337 0.00103948 1e-05
-0.00934491 0.00104072 1e-05
-0.00911645 0.00104198 1e-05
-0.008888 0.00104324 1e-05
-0.00865954 0.00104452 1e-05
-0.00843108 0.0010458 1e-05
-0.00821175 0.00104702 1e-05
-0.00799242 0.00104826 1e-05
-0.00777309 0.0010495 1e-05
-0.00755376 0.00105074 1e-05
-0.00733443 0.00105199 1e-05
-0.00712387 0.00105317 1e-05
-0.0069133 0.00105437 1e-05
-0.00670273 0.00105556 1e-05
-0.00649217 0.00105676 1e-05
-0.0062816 0.00105796 1e-05
-0.00607944 0.00105909 1e-05
-0.00587729 0.00106023 1e-05
-0.00567514 0.00106137 1e-05
-0.00547298 0.00106251 1e-05
-0.00527083 0.00106365 1e-05
-0.00507675 0.00106471 1e-05
-0.00488267 0.0010658 1e-05
-0.0046886 0.00106687 1e-05
-0.00449452 0.00106795 1e-05
-0.00430044 0.00106902 1e-05
-0.00411412 0.00107002 1e-05
-0.0039278 0.00107104 1e-05
-0.00374147 0.00107205 1e-05
-0.00355515 0.00107305 1e-05
-0.00336883 0.00107405 1e-05
-0.00318995 0.00107499 1e-05
-0.00301107 0.00107593 1e-05
-0.00283219 0.00107687 1e-05
-0.00265331 0.0010778 1e-05
-0.00247443 0.00107872 1e-05
-0.0023027 0.00107959 1e-05
-0.00213097 0.00108046 1e-05
-0.00195924 0.00108132 1e-05
-0.0017875 0.00108217 1e-05
-0.00161577 0.00108301 1e-05
-0.0014509 0.0010838 1e-05
-0.00128603 0.00108459 1e-05
-0.00112116 0.00108536 1e-05
-0.000956289 0.00108612 1e-05
-0.000791418 0.00108686 1e-05
-0.000633135 0.00108755 1e-05
-0.000474851 0.00108823 1e-05
-0.000316567 0.00108889 1e-05
-0.000158283 0.00108953 1e-05
0 0.00109015 1e-05
0.000105677 0.00109055 1e-05
0.000211355 0.00109094 1e-05
0.000317032 0.00109131 1e-05
0.00042271 0.00109168 1e-05
0.000528387 0.00109203 1e-05
0.000634886 0.00109237 1e-05
0.000741385 0.0010927 1e-05
0.000847885 0.00109303 1e-05
0.000954384 0.00109334 1e-05
0.00106088 0.00109365 1e-05
0.00116821 0.00109394 1e-05
0.00127554 0.00109423 1e-05
0.00138286 0.00109452 1e-05
0.00149019 0.00109479 1e-05
0.00159752 0.00109505 1e-05
0.00170568 0.0010953 1e-05
0.00181384 0.00109555 1e-05
0.001922 0.0010958 1e-05
0.00203016 0.00109603 1e-05
0.00213833 0.00109625 1e-05
0.00224733 0.00109645 1e-05
0.00235633 0.00109666 1e-05
0.00246533 0.00109686 1e-05
0.00257434 0.00109705 1e-05
0.00268334 0.00109724 1e-05
0.00279319 0.00109741 1e-05
0.00290304 0.00109758 1e-05
0.00301289 0.00109775 1e-05
0.00312274 0.00109791 1e-05
0.00323259 0.00109807 1e-05
0.00334329 0.00109821 1e-05
0.003454 0.00109835 1e-05
0.0035647 0.00109849 1e-05
0.0036754 0.00109863 1e-05
0.00378611 0.00109876 1e-05
0.00389767 0.00109888 1e-05
0.00400924 0.001099 1e-05
0.0041208 0.00109912 1e-05
0.00423237 0.00109923 1e-05
0.00434393 0.00109934 1e-05
0.00445636 0.00109944 1e-05
0.00456879 0.00109954 1e-05
0.00468123 0.00109963 1e-05
0.00479366 0.00109972 1e-05
0.00490609 0.00109981 1e-05
0.0050194 0.00109989 1e-05
0.0051327 0.00109996 1e-05
0.00524601 0.00110004 1e-05
0.00535931 0.00110011 1e-05
0.00547262 0.00110017 1e-05
0.00558681 0.00110023 1e-05
0.005701 0.00110028 1e-05
0.00581518 0.00110034 1e-05
0.00592937 0.00110038 1e-05
0.00604356 0.00110043 1e-05
0.00612222 0.00110045 1e-05
0.00620088 0.00110048 1e-05
0.00627954 0.0011005 1e-05
0.0063582 0.00110052 1e-05
0.00643529 0.00110054 1e-05
0.00647202 0.00110054 1e-05
0.00650874 0.00110055 1e-05
0.00654547 0.00110056 1e-05
0.0065822 0.00110057 1e-05
0.00661893 0.00110057 1e-05
0.0067349 0.00110059 1e-05
0.00685087 0.0011006 1e-05
0.00696684 0.00110061 1e-05
0.00708281 0.00110061 1e-05
0.00719878 0.00110061 1e-05
0.00731565 0.00110061 1e-05
0.00743252 0.0011006 1e-05
0.00754939 0.00110058 1e-05
0.00766626 0.00110056 1e-05
0.00778313 0.00110054 1e-05
0.00790091 0.00110051 1e-05
0.00801869 0.00110047 1e-05
0.00813647 0.00110044 1e-05
0.00825425 0.00110039 1e-05
0.00837203 0.00110035 1e-05
0.00849073 0.00110028 1e-05
0.00860942 0.00110023 1e-05
0.00872812 0.00110017 1e-05
0.00884682 0.0011001 1e-05
0.00896551 0.00110003 1e-05
0.00908513 0.00109993 1e-05
0.00920475 0.00109985 1e-05
0.00932437 0.00109976 1e-05
0.00944398 0.00109967 1e-05
0.0095636 0.00109957 1e-05
0.00968415 0.00109945 1e-05
0.0098047 0.00109934 1e-05
0.00992525 0.00109922 1e-05
0.0100458 0.0010991 1e-05
0.0101663 0.00109898 1e-05
0.0102878 0.00109882 1e-05
0.0104093 0.00109868 1e-05
0.0105308 0.00109854 1e-05
0.0106523 0.00109839 1e-05
0.0107738 0.00109823 1e-05
0.0108962 0.00109804 1e-05
0.0110186 0.00109787 1e-05
0.0111411 0.0010977 1e-05
0.0112635 0.00109752 1e-05
0.0113859 0.00109733 1e-05
0.0115093 0.00109711 1e-05
0.0116327 0.0010969 1e-05
0.0117561 0.0010967 1e-05
0.0118795 0.00109649 1e-05
0.0120028 0.00109627 1e-05
0.0121272 0.00109601 1e-05
0.0122515 0.00109577 1e-05
0.0123759 0.00109553 1e-05
0.0125002 0.00109528 1e-05
0.0126245 0.00109503 1e-05
0.0127498 0.00109473 1e-05
0.0128752 0.00109446 1e-05
0.0130005 0.00109419 1e-05
0.0131258 0.0010939 1e-05
0.0132511 0.00109362 1e-05
0.0133774 0.00109328 1e-05
0.0135036 0.00109297 1e-05
0.0136299 0.00109266 1e-05
0.0137562 0.00109234 1e-05
0.0138825 0.00109201 1e-05
0.0140098 0.00109163 1e-05
0.014137 0.00109128 1e-05
0.0142643 0.00109093 1e-05
0.0143915 0.00109057 1e-05
0.0145188 0.0010902 1e-05
0.0146471 0.00108978 1e-05
0.0147753 0.00108939 1e-05
0.0149036 0.001089 1e-05
0.0150318 0.0010886 1e-05
0.0151601 0.00108818 1e-05
0.0152893 0.00108773 1e-05
0.0154186 0.00108729 1e-05
0.0155478 0.00108685 1e-05
0.0156771 0.00108641 1e-05
0.0158063 0.00108595 1e-05
0.0159366 0.00108546 1e-05
0.0160668 0.00108497 1e-05
0.0161971 0.00108449 1e-05
0.0163274 0.00108401 1e-05
0.0164576 0.0010835 1e-05
0.0165889 0.00108296 1e-05
0.0167201 0.00108244 1e-05
0.0168514 0.00108191 1e-05
0.0169827 0.00108138 1e-05
0.0171139 0.00108083 1e-05
0.0172462 0.00108025 1e-05
0.0173785 0.00107967 1e-05
0.0175108 0.0010791 1e-05
0.0176431 0.00107852 1e-05
0.0177754 0.00107792 1e-05
0.0179087 0.0010773 1e-05
0.018042 0.00107668 1e-05
0.0181753 0.00107606 1e-05
0.0183087 0.00107543 1e-05
0.018442 0.00107478 1e-05
0.0185763 0.00107411 1e-05
0.0187107 0.00107344 1e-05
0.018845 0.00107277 1e-05
0.0189794 0.00107209 1e-05
0.0191137 0.0010714 1e-05
0.0192491 0.00107069 1e-05
0.0193845 0.00106997 1e-05
0.0195199 0.00106925 1e-05
0.0196553 0.00106852 1e-05
0.0197907 0.00106777 1e-05
0.0199272 0.00106701 1e-05
0.0200636 0.00106624 1e-05
0.0202001 0.00106547 1e-05
0.0203365 0.00106468 1e-05
0.020473 0.00106389 1e-05
0.0206105 0.00106308 1e-05
0.020748 0.00106227 1e-05
0.0208855 0.00106144 1e-05
0.021023 0.0010606 1e-05
0.0211606 0.00105976 1e-05
0.0212991 0.0010589 1e-05
0.0214377 0.00105803 1e-05
0.0215763 0.00105715 1e-05
0.0217149 0.00105626 1e-05
0.0218535 0.00105537 1e-05
0.0219931 0.00105447 1e-05
0.0221328 0.00105355 1e-05
0.0222724 0.00105261 1e-05
0.0224121 0.00105166 1e-05
0.0225517 0.00105072 1e-05
0.0226925 0.00104977 1e-05
0.0228332 0.0010488 1e-05
0.022974 0.00104781 1e-05
0.0231147 0.00104681 1e-05
0.0232555 0.00104581 1e-05
0.0233973 0.00104481 1e-05
0.0235391 0.00104379 1e-05
0.023681 0.00104274 1e-05
0.0238228 0.00104169 1e-05
0.0239647 0.00104064 1e-05
0.0241076 0.00103959 1e-05
0.0242505 0.00103852 1e-05
0.0243935 0.00103742 1e-05
0.0245364 0.00103631 1e-05
0.0246794 0.00103521 1e-05
0.0248234 0.00103411 1e-05
0.0249675 0.00103298 1e-05
0.0251115 0.00103183 1e-05
0.0252556 0.00103067 1e-05
0.0253996 0.00102952 1e-05
0.0255448 0.00102837 1e-05
0.02569 0.00102719 1e-05
0.0258351 0.00102598 1e-05
0.0259803 0.00102477 1e-05
0.0261255 0.00102357 1e-05
0.0262718 0.00102236 1e-05
0.0264181 0.00102113 1e-05
0.0265644 0.00101987 1e-05
0.0267107 0.00101861 1e-05
0.026857 0.00101735 1e-05
0.0270044 0.0010161 1e-05
0.0271519 0.00101481 1e-05
0.0272993 0.0010135 1e-05
0.0274468 0.00101219 1e-05
0.0275942 0.00101088 1e-05
0.0277428 0.00100957 1e-05
0.0278914 0.00100823 1e-05
0.0280399 0.00100687 1e-05
0.0281885 0.00100551 1e-05
0.0283371 0.00100414 1e-05
0.0284869 0.00100278 1e-05
0.0286366 0.00100138 1e-05
0.0287863 0.000999971 1e-05
0.0289361 0.000998554 1e-05
0.0290858 0.000997133 1e-05
0.0292367 0.000995717 1e-05
0.0293876 0.000994265 1e-05
0.0295385 0.000992802 1e-05
0.0296894 0.000991332 1e-05
0.0298403 0.000989856 1e-05
0.0299924 0.000988383 1e-05
0.0301445 0.000986875 1e-05
0.0302966 0.000985359 1e-05
0.0304486 0.000983836 1e-05
0.0306007 0.000982304 1e-05
0.030754 0.000980774 1e-05
0.0309072 0.000979212 1e-05
0.0310605 0.000977643 1e-05
0.0312138 0.000976065 1e-05
0.031367 0.000974479 1e-05
0.0315215 0.000972891 1e-05
0.0316759 0.000971274 1e-05
0.0318304 0.000969649 1e-05
0.0319848 0.000968016 1e-05
0.0321393 0.000966375 1e-05
0.0322949 0.000964727 1e-05
0.0324506 0.000963054 1e-05
0.0326062 0.000961373 1e-05
0.0327619 0.000959683 1e-05
0.0329175 0.000957985 1e-05
0.0330744 0.000956275 1e-05
0.0332313 0.000954544 1e-05
0.0333881 0.000952805 1e-05
0.033545 0.000951056 1e-05
[...]
POINT_DATA 10885
 FIELD attributes 1
U 3 10885 float
10.0004 	0.00757611 	0 10.0023 	0.015132 	0 10.0042 	0.021795 	0 10.0061 	0.0284128 	0 10.008 	0.0349857 	0 10.0143 	0.0464411 	0 10.016 	0.0368187 	0 10.0207 	0.0356233 	0 10.0255 	0.034431 	0 10.0302 	0.0332417 	0 10.0386 	0.0396423 	0 10.0406 	0.0279031 	0 10.0458 	0.0269484 	0 10.051 	0.0259909 	0 10.0562 	0.0250306 	0 10.0638 	0.0310677 	0 10.0662 	0.0246586 	0 10.0707 	0.0260114 	0 10.0752 	0.0273701 	0 10.0797 	0.0287346 	0 10.0854 	0.0346053 	0 10.0883 	0.0320867 	0 10.0922 	0.0340299 	0 10.0961 	0.0359809 	0 10.1 	0.0379399 	0 10.1041 	0.0418051 	0 10.1072 	0.0414834 	0 10.1105 	0.0429638 	0 10.1137 	0.0444492 	0 10.1169 	0.0459396 	0 10.1196 	0.0471914 	0 10.1198 	0.0472671 	0 10.1199 	0.0473428 	0 10.1201 	0.0474185 	0 10.1203 	0.0474943 	0 10.1204 	0.0475436 	0 10.123 	0.0485645 	0 10.1255 	0.0495686 	0 10.128 	0.0505752 	0 10.1306 	0.0515846 	0 10.1333 	0.052105 	0 10.1349 	0.0531021 	0 10.1367 	0.0537481 	0 10.1384 	0.0543955 	0 10.1402 	0.0550442 	0 10.1424 	0.0548735 	0 10.1433 	0.0558388 	0 10.1445 	0.0562203 	0 10.1456 	0.0566024 	0 10.1468 	0.0569851 	0 10.1486 	0.0563543 	0 10.149 	0.0572562 	0 10.1497 	0.0574333 	0 10.1504 	0.0576106 	0 10.1511 	0.057788 	0 10.1524 	0.0568672 	0 10.1527 	0.0576835 	0 10.153 	0.0577061 	0 10.1533 	0.0577288 	0 10.1536 	0.0577514 	0 10.1543 	0.0566677 	0 10.1548 	0.0573873 	0 10.1548 	0.0572928 	0 10.1548 	0.0571984 	0 10.1548 	0.0571038 	0 10.1548 	0.055939 	0 10.1557 	0.0565533 	0 10.1555 	0.0563644 	0 10.1552 	0.0561754 	0 10.1549 	0.0559863 	0 10.1541 	0.0547861 	0 10.1557 	0.0552866 	0 10.1553 	0.0550074 	0 10.1549 	0.0547281 	0 10.1544 	0.0544486 	0 10.1526 	0.0532205 	0 10.1552 	0.0535881 	0 10.1546 	0.0532091 	0 10.1541 	0.0528301 	0 10.1535 	0.0524509 	0 10.1507 	0.0511852 	0 10.1544 	0.0513909 	0 10.1538 	0.0508697 	0 10.1531 	0.0503484 	0 10.1525 	0.0498271 	0 10.1485 	0.0484586 	0 10.1534 	0.0483878 	0 10.1527 	0.0475642 	0 10.152 	0.0467403 	0 10.1513 	0.0459164 	0 10.1459 	0.0442744 	0 10.152 	0.0436879 	1.31344e-21 10.1512 	0.0423643 	7.06527e-21 10.1503 	0.0410405 	1.28186e-20 10.1495 	0.0397165 	1.85735e-20 10.1426 	0.0378623 	1.63773e-20 10.1493 	0.0373521 	1.03116e-19 10.1481 	0.0361397 	9.51703e-20 10.147 	0.0349271 	8.72081e-20 10.1458 	0.0337143 	7.92296e-20 10.1382 	0.0321008 	-1.6751e-20 10.1445 	0.0319049 	-4.45267e-20 10.1432 	0.0309836 	-4.96335e-20 10.1418 	0.0300621 	-5.47348e-20 10.1405 	0.0291405 	-5.98306e-20 10.1328 	0.0276927 	-2.57059e-20 10.1388 	0.0277 	-2.22562e-20 10.1374 	0.0267624 	-1.56398e-20 10.136 	0.0258246 	-9.02426e-21 10.1345 	0.0248864 	-2.40952e-21 10.127 	0.0232857 	7.10026e-21 10.1327 	0.0234916 	-7.99204e-21 10.1313 	0.0225622 	-2.89279e-20 10.1298 	0.0216324 	-4.98662e-20 10.1284 	0.0207023 	-7.08072e-20 10.121 	0.018934 	-9.91875e-20 10.1263 	0.0193937 	-1.32503e-19 10.1247 	0.0186471 	-1.18543e-19 10.1231 	0.0179002 	-1.04575e-19 10.1215 	0.017153 	-9.06e-20 10.1143 	0.015416 	-3.47816e-20 10.1189 	0.0160326 	2.75519e-20 10.1172 	0.0154799 	4.24895e-20 10.1154 	0.0149269 	5.74195e-20 10.1136 	0.0143737 	7.23417e-20 10.1069 	0.0128027 	4.13981e-20 10.1107 	0.0133824 	-3.31981e-20 10.1088 	0.0129311 	-3.96605e-20 10.1069 	0.0124796 	-4.6113e-20 10.1049 	0.0120279 	-5.25554e-20 10.0986 	0.0106749 	-5.82246e-22 10.1016 	0.0110829 	4.66734e-20 10.0995 	0.0106655 	3.62031e-20 10.0974 	0.010248 	2.57234e-20 10.0953 	0.00983017 	1.52345e-20 10.0895 	0.00871537 	-3.41245e-20 10.0914 	0.00891523 	-8.26579e-20 10.0891 	0.00851648 	-1.06675e-19 10.0868 	0.00811755 	-1.30688e-19 10.0845 	0.00771843 	-1.54698e-19 10.0793 	0.00684918 	-1.55338e-19 10.08 	0.00685701 	-1.6248e-19 10.0774 	0.00647618 	-1.48852e-19 10.0749 	0.0060952 	-1.35221e-19 10.0723 	0.00571406 	-1.21589e-19 10.0677 	0.00507049 	-9.6228e-20 10.0671 	0.00490945 	-7.88808e-20 10.0643 	0.00453559 	-5.88905e-20 10.0614 	0.0041616 	-3.89013e-20 10.0585 	0.00378747 	-1.89131e-20 10.0548 	0.00332145 	5.8647e-22 10.0536 	0.00313958 	0 10.0514 	0.00288273 	0 10.0492 	0.00262582 	0 10.047 	0.00236886 	0 10.0449 	0.00211699 	0 10.0439 	0.0019963 	0 10.0428 	0.0018756 	0 10.0418 	0.00175488 	0 10.0408 	0.00163414 	0 10.0369 	0.00144449 	-1.12836e-22 10.0361 	0.00113606 	-1.89934e-20 10.0325 	0.000752766 	-3.85106e-20 10.0289 	0.00036935 	-5.80267e-20 10.0254 	-1.41873e-05 	-7.75417e-20 10.0098 	-0.000750288 	-9.69337e-20 10.0174 	-0.000776847 	-1.03135e-19 10.0134 	-0.00116709 	-1.05249e-19 10.0095 	-0.00155745 	-1.07363e-19 10.0055 	-0.00194793 	-1.09479e-19 9.9798 	-0.00304526 	-1.06766e-19 9.99636 	-0.00273845 	-9.79054e-20 9.99201 	-0.00313485 	-6.71685e-20 9.98766 	-0.00353137 	-3.64378e-20 9.9833 	-0.00392801 	-5.71323e-21 9.94703 	-0.00541948 	4.8352e-20 9.9728 	-0.00476192 	4.90152e-20 9.96802 	-0.00516403 	5.03505e-20 9.96324 	-0.00556627 	5.16844e-20 9.95846 	-0.00596866 	5.30169e-20 9.91145 	-0.00785674 	5.83936e-20 9.94651 	-0.0068577 	4.55597e-20 9.94129 	-0.00726449 	3.27245e-20 9.93607 	-0.00767143 	1.98885e-20 9.93084 	-0.00807853 	7.05174e-21 9.87313 	-0.0103394 	-1.87838e-21 9.91734 	-0.00902835 	-6.49005e-21 9.91167 	-0.00943968 	-1.86458e-20 9.906 	-0.00985118 	-3.08007e-20 9.90032 	-0.0102629 	-4.29549e-20 9.83217 	-0.0128553 	-5.51333e-20 9.88518 	-0.0112759 	-5.16618e-20 9.87905 	-0.011692 	-5.96983e-20 9.87292 	-0.0121082 	-6.77327e-20 9.86678 	-0.0125247 	-7.57649e-20 9.78869 	-0.0153953 	-9.99975e-20 9.84997 	-0.0135986 	-1.83046e-19 9.84337 	-0.0140191 	-1.73127e-19 9.83678 	-0.0144398 	-1.63216e-19 9.83017 	-0.0148607 	-1.53315e-19 9.74284 	-0.0179475 	-4.5686e-20 9.81166 	-0.0159908 	-2.75691e-20 9.80461 	-0.0164161 	-1.8917e-20 9.79755 	-0.0168417 	-1.02644e-20 9.79049 	-0.0172675 	-1.61122e-21 9.69481 	-0.0205049 	0 9.77029 	-0.0184487 	0 9.76279 	-0.0188801 	0 9.75528 	-0.0193118 	0 9.74776 	-0.0197437 	0 9.6448 	-0.0230648 	0 9.72592 	-0.0209703 	4.61284e-22 9.71798 	-0.0214088 	8.56879e-21 9.71003 	-0.0218476 	1.66757e-20 9.70164 	-0.0222993 	2.48384e-20 9.59299 	-0.0256226 	4.58757e-20 9.67472 	-0.0236571 	1.87834e-19 9.6703 	-0.0239971 	1.96903e-19 9.66193 	-0.024443 	1.99897e-19 9.64377 	-0.0251518 	1.88094e-19 9.53958 	-0.0281697 	4.60446e-20 9.61616 	-0.0264927 	2.52044e-20 9.61989 	-0.0266342 	1.61697e-20 9.61111 	-0.0270881 	9.16e-21 9.58408 	-0.0279967 	6.57334e-21 9.48478 	-0.030706 	2.15113e-20 9.55593 	-0.0293152 	1.1418e-19 9.56695 	-0.0293127 	1.38131e-19 9.55779 	-0.0297763 	1.39041e-19 9.5229 	-0.0308276 	1.08354e-19 9.4288 	-0.0332321 	4.91091e-21 9.49438 	-0.032123 	-1.05262e-19 9.51175 	-0.03203 	-1.51972e-19 9.50223 	-0.0325041 	-1.63308e-19 9.46057 	-0.0336386 	-1.4109e-19 9.37185 	-0.0357405 	-6.97575e-20 9.43179 	-0.0349119 	-1.9401e-19 9.45453 	-0.0347831 	-2.53049e-19 9.44466 	-0.0352679 	-2.54994e-19 9.39735 	-0.0364255 	-1.87073e-19 9.31413 	-0.0382283 	-5.22419e-20 9.36845 	-0.0376768 	-2.8327e-20 9.39556 	-0.0375667 	-1.11133e-20 9.38538 	-0.0380617 	-3.07429e-21 9.33352 	-0.0391827 	0 9.25583 	-0.0406925 	0 9.30463 	-0.0404006 	0 9.33514 	-0.0403545 	0 9.32467 	-0.0408593 	0 9.26937 	-0.0418937 	2.62368e-21 9.19713 	-0.0431291 	6.23707e-21 9.2406 	-0.0430789 	2.78471e-21 9.27359 	-0.0431381 	0 9.26286 	-0.0436546 	0 9.20514 	-0.0445599 	3.02668e-21 9.13823 	-0.0455423 	6.64454e-21 9.1766 	-0.0457289 	3.19151e-21 9.21123 	-0.0459415 	5.55292e-22 9.20026 	-0.0464706 	7.88724e-21 9.14108 	-0.0471962 	2.712e-20 9.07929 	-0.0479336 	4.69914e-20 9.11284 	-0.048349 	1.80946e-19 9.14639 	-0.0487648 	3.14902e-19 9.13428 	-0.0492967 	3.15443e-19 9.07738 	-0.0497967 	1.81463e-19 9.02046 	-0.0502977 	4.7483e-20 9.04952 	-0.0509301 	2.78637e-20 9.07856 	-0.0515632 	8.24485e-21 9.06655 	-0.0520771 	6.22509e-22 9.01423 	-0.0523528 	4.08844e-21 8.96189 	-0.0526292 	7.55471e-21 8.98679 	-0.053464 	4.25681e-21 9.01165 	-0.0542997 	9.59302e-22 8.99983 	-0.0547917 	8.10693e-22 8.95178 	-0.0548583 	-3.66866e-21 8.90371 	-0.0549253 	-8.14896e-21 8.92479 	-0.0559461 	-5.4239e-20 8.94583 	-0.0569679 	-1.00331e-19 8.93427 	-0.0574352 	-1.02088e-19 8.89016 	-0.0573099 	-5.99362e-20 8.84604 	-0.0571848 	-1.77845e-20 8.86365 	-0.0583733 	8.86273e-20 8.88122 	-0.0595631 	1.95035e-19 8.86999 	-0.0600041 	2.04754e-19 8.82949 	-0.0597058 	1.16236e-19 8.78899 	-0.0594074 	2.77176e-20 8.80347 	-0.0607448 	1.57505e-20 8.8179 	-0.0620837 	3.78048e-21 8.80706 	-0.0624973 	-7.58128e-22 8.76985 	-0.0620455 	3.88813e-21 8.73266 	-0.0615935 	8.53503e-21 8.74433 	-0.0630603 	2.95714e-21 8.75594 	-0.0645288 	-2.62523e-21 8.74555 	-0.0649148 	-2.11534e-20 8.71133 	-0.0643299 	-7.44087e-20 8.67712 	-0.0637447 	-1.27666e-19 8.68629 	-0.065322 	-2.67953e-19 8.6954 	-0.066901 	-4.08236e-19 8.68549 	-0.0672595 	-3.91074e-19 8.65396 	-0.0665614 	-2.30091e-19 8.62245 	-0.0658629 	-6.91088e-20 8.6294 	-0.0675316 	6.27879e-20 8.63547 	-0.0691359 	1.88154e-19 8.62539 	-0.0694453 	1.85547e-19 8.59781 	-0.0687426 	9.67514e-20 8.56872 	-0.067951 	4.3003e-22 8.57371 	-0.0696939 	-9.51697e-20 8.57598 	-0.0711795 	-1.75351e-19 8.56611 	-0.071487 	-1.85364e-19 8.5429 	-0.0708783 	-1.22884e-19 8.51597 	-0.0700122 	-4.0079e-20 8.51925 	-0.071812 	-2.78681e-20 8.51843 	-0.0731449 	-1.58356e-20 8.50875 	-0.0734519 	-4.18848e-21 8.48925 	-0.0729726 	1.39033e-20 8.46427 	-0.072051 	3.56167e-20 8.46603 	-0.0738935 	1.26681e-20 8.46274 	-0.075049 	-2.79794e-21 8.45324 	-0.0753571 	-9.04247e-21 8.43688 	-0.0750337 	-4.4074e-21 8.41362 	-0.0740727 	1.1207e-20 8.41408 	-0.0759432 	-6.04291e-21 8.40881 	-0.0769018 	-1.72907e-20 8.39949 	-0.0772116 	-2.4268e-20 8.38578 	-0.0770641 	-3.69359e-20 8.36407 	-0.076079 	-6.0021e-20 8.36337 	-0.0779632 	5.57218e-20 8.35657 	-0.0787127 	8.98008e-20 8.34742 	-0.0790259 	9.24756e-20 8.33594 	-0.0790694 	7.40845e-20 8.31561 	-0.0780771 	-2.50712e-20 8.31392 	-0.0799707 	7.26677e-20 8.30595 	-0.0805076 	8.94022e-20 8.29695 	-0.0808269 	9.31298e-20 8.28736 	-0.0810698 	9.18705e-20 8.26827 	-0.0800789 	1.04568e-20 8.26569 	-0.0819754 	-1.06408e-21 8.25687 	-0.0823009 	-7.19881e-22 8.24803 	-0.0826266 	-3.75712e-22 8.23917 	-0.0829526 	-3.15716e-23 8.22203 	-0.0820867 	1.9123e-20 8.21796 	-0.0837551 	0 8.20928 	-0.0840871 	0 8.20059 	-0.0844193 	0 8.19188 	-0.0847519 	0 8.1769 	-0.0840998 	1.60502e-20 8.17166 	-0.085533 	0 8.16312 	-0.0858742 	0 8.15456 	-0.0862158 	0 8.14599 	-0.0865576 	0 8.13286 	-0.0861304 	0 8.12671 	-0.0873328 	0 8.1183 	-0.0876866 	0 8.10987 	-0.0880407 	0 8.10143 	-0.0883951 	0 8.0899 	-0.0881936 	-9.209e-21 8.08305 	-0.0891732 	0 8.07476 	-0.0895418 	0 8.06646 	-0.0899106 	0 8.05814 	-0.0902797 	0 8.04799 	-0.0902998 	-1.19155e-20 8.04061 	-0.0910677 	0 8.03244 	-0.0914528 	0 8.02426 	-0.0918382 	0 8.01605 	-0.0922239 	0 8.00709 	-0.0924588 	-5.28034e-21 8.00094 	-0.0929468 	-7.48484e-21 7.99449 	-0.0932697 	-1.62981e-20 7.98803 	-0.0935927 	-2.5112e-20 7.98155 	-0.093916 	-3.39266e-20 7.97526 	-0.0942298 	-4.24807e-20 7.97356 	-0.0943129 	-4.45896e-20 7.97186 	-0.094396 	-4.66984e-20 7.97015 	-0.0944792 	-4.88072e-20 7.96845 	-0.0945623 	-5.09159e-20 7.96695 	-0.0946073 	-5.30262e-20 7.95871 	-0.0950671 	-5.20416e-20 7.95054 	-0.0954928 	-5.14119e-20 7.94235 	-0.0959188 	-5.07798e-20 7.93413 	-0.0963451 	-5.01454e-20 7.9271 	-0.0965517 	-5.16428e-20 7.91855 	-0.0971967 	-4.05361e-20 7.91047 	-0.0976435 	-2.94185e-20 7.90237 	-0.0980906 	-1.82996e-20 7.89425 	-0.098538 	-7.17957e-21 7.88827 	-0.0985924 	0 7.87941 	-0.0994167 	-3.20922e-21 7.87142 	-0.0998859 	-8.36611e-21 7.8634 	-0.100355 	-1.35223e-20 7.85536 	-0.100825 	-1.86779e-20 7.8504 	-0.100737 	-2.37839e-20 7.84123 	-0.101735 	-5.3745e-20 7.83331 	-0.102228 	-7.47641e-20 7.82537 	-0.102721 	-9.57847e-20 7.81741 	-0.103215 	-1.16807e-19 7.81343 	-0.102992 	-1.11421e-19 7.80394 	-0.104159 	-8.87723e-20 7.79609 	-0.104677 	-7.70277e-20 7.78822 	-0.105195 	-6.52775e-20 7.78032 	-0.105714 	-5.35216e-20 7.77728 	-0.105364 	-7.38855e-20 7.76749 	-0.106696 	-8.58495e-20 7.7597 	-0.10724 	-6.61211e-20 7.75189 	-0.107785 	-4.6397e-20 7.74416 	-0.10831 	-2.63564e-20 7.7419 	-0.107861 	9.23637e-21 7.73202 	-0.109274 	1.40435e-20 7.72408 	-0.109925 	9.65258e-21 7.71631 	-0.110497 	4.31464e-21 7.70957 	-0.110884 	0 7.70724 	-0.110489 	0 7.69746 	-0.111908 	0 7.68917 	-0.112737 	0 7.68145 	-0.113338 	0 7.67565 	-0.113595 	0 7.67324 	-0.113254 	0 7.66355 	-0.114681 	0 7.65492 	-0.115684 	-1.00676e-20 7.64723 	-0.116315 	-2.89843e-20 7.64234 	-0.116449 	-4.79454e-20 7.63983 	-0.116163 	-6.69464e-20 7.63023 	-0.117599 	-4.65807e-20 7.62126 	-0.118773 	-2.46733e-20 7.61359 	-0.119434 	2.18e-22 7.60957 	-0.119452 	1.03445e-20 7.60696 	-0.11922 	1.47419e-20 7.59744 	-0.120668 	4.95916e-20 7.58814 	-0.122008 	8.23544e-20 7.58048 	-0.122701 	1.02774e-19 7.57728 	-0.122609 	9.03685e-20 7.57458 	-0.122432 	7.43881e-20 7.56511 	-0.123894 	4.89101e-20 7.5556 	-0.125357 	2.34233e-20 7.54826 	-0.12605 	9.12602e-22 7.54543 	-0.125927 	1.09393e-20 7.54261 	-0.125804 	2.0966e-20 7.5332 	-0.127283 	8.87367e-20 7.52374 	-0.128761 	1.56511e-19 7.51689 	-0.12948 	1.57162e-19 7.51395 	-0.129412 	8.99855e-20 7.511 	-0.129343 	2.28069e-20 7.50164 	-0.130839 	1.35524e-20 7.49222 	-0.132335 	4.3016e-21 7.48585 	-0.133082 	4.53469e-21 7.48277 	-0.133068 	1.4326e-20 7.4797 	-0.133054 	2.41178e-20 7.47037 	-0.134568 	9.03793e-20 7.46099 	-0.136083 	1.56644e-19 7.45507 	-0.136859 	1.57327e-19 7.45185 	-0.136901 	9.16856e-20 7.44864 	-0.136942 	2.6042e-20 7.43933 	-0.138477 	1.7045e-20 7.42997 	-0.140012 	8.05175e-21 7.42448 	-0.14082 	0 7.42113 	-0.140917 	0 7.41777 	-0.141014 	0 7.40847 	-0.14257 	0 7.39936 	-0.144084 	0 7.39422 	-0.144895 	0 7.39054 	-0.14512 	0 7.38703 	-0.145274 	0 7.37773 	-0.146851 	0 7.36948 	-0.148238 	0 7.36424 	-0.149089 	0 7.36005 	-0.149513 	1.14126e-20 7.35639 	-0.149725 	2.85261e-20 7.34708 	-0.151325 	9.8443e-21 7.33963 	-0.15259 	4.3493e-21 7.33429 	-0.153482 	1.35422e-20 7.3296 	-0.154102 	2.47567e-20 7.32578 	-0.154371 	3.85737e-20 7.31644 	-0.155996 	1.31454e-19 7.30978 	-0.157146 	1.64171e-19 7.30432 	-0.15808 	1.69457e-19 7.29914 	-0.158892 	1.50806e-19 7.29515 	-0.159219 	3.7398e-20 7.28578 	-0.160869 	1.53343e-19 7.27986 	-0.161909 	1.53178e-19 7.27428 	-0.162885 	1.40817e-19 7.26867 	-0.163862 	1.28435e-19 7.26445 	-0.16427 	3.94834e-20 7.25551 	-0.165863 	2.86664e-20 7.24984 	-0.166882 	2.91271e-20 7.24412 	-0.167901 	2.95926e-20 7.23838 	-0.16892 	3.00628e-20 7.23362 	-0.169529 	5.97833e-20 7.22546 	-0.171005 	7.42818e-20 7.21965 	-0.172067 	7.18699e-20 7.21379 	-0.17313 	6.94434e-20 7.2079 	-0.174192 	6.70021e-20 7.20261 	-0.174997 	4.42283e-20 7.1952 	-0.176361 	1.76662e-20 7.18924 	-0.177467 	1.12125e-20 7.18324 	-0.178572 	4.77148e-21 7.17719 	-0.179678 	-1.65682e-21 7.17138 	-0.180676 	-1.04519e-21 7.16631 	-0.181623 	-2.27223e-22 7.16185 	-0.182463 	-1.88978e-22 7.15736 	-0.183302 	-1.50741e-22 7.15285 	-0.184142 	-1.12514e-22 7.14853 	-0.184942 	-7.60964e-23 7.14677 	-0.185258 	-6.00697e-23 7.14499 	-0.185575 	-4.40416e-23 7.14322 	-0.185892 	-2.80122e-23 7.14144 	-0.186208 	-1.19815e-23 7.14001 	-0.186489 	0 7.13338 	-0.187715 	-1.38822e-20 7.12692 	-0.188905 	-2.89217e-20 7.12041 	-0.190095 	-4.39557e-20 7.11385 	-0.191285 	-5.89842e-20 7.10888 	-0.192309 	-7.26673e-20 7.10132 	-0.193708 	-5.75064e-20 7.09468 	-0.194941 	-4.10746e-20 7.08799 	-0.196174 	-2.46372e-20 7.08125 	-0.197407 	-8.19399e-21 7.07737 	-0.198346 	3.27563e-21 7.06885 	-0.199917 	3.87001e-21 7.06202 	-0.201192 	1.91063e-20 7.05514 	-0.202467 	3.43369e-20 7.04821 	-0.203743 	4.95616e-20 7.04543 	-0.204598 	7.15292e-20 7.03593 	-0.206339 	4.79055e-20 7.0289 	-0.207657 	3.13518e-20 7.02181 	-0.208974 	1.4792e-20 7.01532 	-0.210229 	-8.95756e-23 7.01301 	-0.211064 	-3.72913e-21 7.0032 	-0.212857 	-6.01489e-20 6.99525 	-0.214333 	-7.79832e-20 6.98796 	-0.215692 	-8.15245e-20 6.9826 	-0.216857 	-6.5365e-20 6.98005 	-0.217742 	-2.09113e-20 6.97005 	-0.219567 	-6.58902e-20 6.96104 	-0.221219 	-9.40641e-20 6.95353 	-0.222619 	-9.78319e-20 6.94931 	-0.223694 	-6.58854e-20 6.94651 	-0.224627 	-1.84548e-20 6.9363 	-0.226486 	-6.59773e-20 6.92621 	-0.228313 	-1.10211e-19 6.91847 	-0.229753 	-1.14187e-19 6.9154 	-0.230737 	-6.08245e-20 6.91234 	-0.231718 	-6.95972e-21 6.90191 	-0.233609 	-3.85012e-21 6.8914 	-0.2355 	-7.42721e-22 6.88411 	-0.236956 	0 6.88082 	-0.237983 	0 6.87749 	-0.239009 	0 6.86682 	-0.240931 	0 6.85609 	-0.242854 	0 6.84909 	-0.244355 	0 6.84552 	-0.245425 	0 6.84191 	-0.246495 	0 6.83101 	-0.248449 	0 6.82003 	-0.250402 	0 6.81331 	-0.251947 	-2.94328e-21 6.80946 	-0.25306 	6.27419e-21 6.80557 	-0.254172 	1.54871e-20 6.79441 	-0.256155 	-4.86186e-20 6.78431 	-0.258033 	-9.63258e-20 6.77765 	-0.259585 	-9.31926e-20 6.77259 	-0.26088 	-5.22706e-20 6.76841 	-0.262033 	9.67474e-21 6.75699 	-0.264045 	-2.04694e-21 6.74816 	-0.26581 	-1.41627e-21 6.74122 	-0.267395 	8.26633e-21 6.73488 	-0.26888 	1.41122e-20 6.73039 	-0.270071 	8.75053e-21 6.7187 	-0.272111 	6.70936e-20 6.71116 	-0.273763 	7.23843e-20 6.70393 	-0.275379 	7.29473e-20 6.69665 	-0.276996 	7.34926e-20 6.69147 	-0.27828 	2.89021e-20 6.68073 	-0.280234 	3.24266e-20 6.67327 	-0.281881 	3.03325e-20 6.66574 	-0.283528 	2.82465e-20 6.65816 	-0.285174 	2.61688e-20 6.65162 	-0.286652 	2.29488e-20 6.64221 	-0.288482 	2.04508e-20 6.63445 	-0.290157 	1.18873e-20 6.62662 	-0.291832 	3.32579e-21 6.61873 	-0.293506 	-5.23381e-21 6.6108 	-0.295176 	-1.37372e-20 6.61057 	-0.295219 	-1.41172e-20 6.61039 	-0.295259 	-1.4117e-20 6.6102 	-0.295299 	-1.41167e-20 6.61001 	-0.295339 	-1.41165e-20 6.60982 	-0.295379 	-1.41162e-20 6.60146 	-0.297036 	-1.63606e-20 6.59303 	-0.298693 	-1.86001e-20 6.58454 	-0.30035 	-2.08345e-20 6.57599 	-0.302006 	-2.3064e-20 6.56858 	-0.303531 	-2.41723e-20 6.55902 	-0.305398 	-2.01766e-20 6.55004 	-0.307119 	-1.38684e-20 6.541 	-0.308839 	-7.55666e-21 6.53189 	-0.310559 	-1.24136e-21 6.5252 	-0.312011 	4.76061e-21 6.51456 	-0.314052 	0 6.50522 	-0.315794 	0 6.49581 	-0.317536 	0 6.48704 	-0.319202 	0 6.4806 	-0.320613 	0 6.46954 	-0.322681 	0 6.45914 	-0.32459 	0 6.44936 	-0.32635 	0 6.44156 	-0.327894 	0 6.43477 	-0.329326 	0 6.42332 	-0.331408 	0 6.41179 	-0.333489 	0 6.40192 	-0.335237 	5.4326e-22 6.39482 	-0.336688 	5.77533e-21 6.38765 	-0.338138 	1.1011e-20 6.37582 	-0.34023 	6.73818e-21 6.36389 	-0.342322 	2.46942e-21 6.35426 	-0.344105 	1.95986e-21 6.34678 	-0.345571 	4.93108e-21 6.33923 	-0.347036 	7.90694e-21 6.327 	-0.349137 	-1.2843e-20 6.31477 	-0.351227 	-3.31776e-20 6.3055 	-0.353006 	-4.03962e-20 6.29741 	-0.354531 	-3.13521e-20 6.28948 	-0.356009 	-1.92901e-20 6.27683 	-0.358116 	-1.25387e-20 6.26571 	-0.360058 	-7.26702e-21 6.25606 	-0.361843 	-3.406e-21 6.24669 	-0.363556 	-1.49142e-21 6.23836 	-0.365044 	-5.67503e-21 6.22531 	-0.367153 	-6.00378e-22 6.21533 	-0.368943 	-4.78815e-21 6.20528 	-0.370732 	-8.97892e-21 6.19515 	-0.372521 	-1.31727e-20 6.18585 	-0.374129 	-1.99288e-20 6.17444 	-0.375999 	-1.84843e-20 6.1645 	-0.377713 	-2.39943e-20 6.1545 	-0.379427 	-2.95128e-20 6.14442 	-0.38114 	-3.50399e-20 6.13495 	-0.382739 	-4.021e-20 6.13437 	-0.382839 	-4.0793e-20 6.1338 	-0.382939 	-4.1376e-20 6.13323 	-0.383039 	-4.19592e-20 6.13265 	-0.383139 	-4.25426e-20 6.1321 	-0.38323 	-4.09333e-20 6.1218 	-0.385035 	-3.21422e-20 6.1114 	-0.386829 	-2.31178e-20 6.10094 	-0.388622 	-1.40871e-20 6.09039 	-0.390415 	-5.05012e-21 6.08007 	-0.392033 	5.97259e-21 6.06973 	-0.394026 	2.09418e-20 6.05892 	-0.395816 	2.45782e-20 6.04804 	-0.397605 	2.82386e-20 6.03712 	-0.399372 	3.04573e-20 6.02662 	-0.40084 	1.21608e-20 6.01605 	-0.402917 	2.82087e-21 6.00503 	-0.404804 	3.57994e-21 5.99373 	-0.406586 	9.92071e-21 5.98267 	-0.408174 	2.57735e-20 5.97175 	-0.409635 	4.78582e-20 5.96075 	-0.411699 	8.34979e-20 5.94968 	-0.413762 	1.19143e-19 5.93806 	-0.415502 	1.24887e-19 5.92678 	-0.416954 	9.26726e-20 5.91542 	-0.418406 	6.04466e-20 5.904 	-0.420455 	1.15775e-19 5.8925 	-0.422502 	1.71099e-19 5.88115 	-0.42426 	1.58874e-19 5.86943 	-0.4257 	8.16838e-20 5.85763 	-0.42714 	4.46308e-21 5.84578 	-0.429169 	-6.13914e-22 5.83399 	-0.431103 	-5.6027