/*--------------------------------*- C++ -*----------------------------------*\
| =========                 |                                                 |
| \\      /  F ield         | OpenFOAM: The Open Source CFD Toolbox           |
|  \\    /   O peration     | Version:  v2006                                 |
|   \\  /    A nd           | Website:  www.openfoam.com                      |
|    \\/     M anipulation  |                                                 |
\*---------------------------------------------------------------------------*/
FoamFile
{
    version     2.0;
    format      ascii;
    class       volScalarField;
    location    "100";
    object      epsilon;
}
// * * * * * * * * * * * * * * * * * * * * * * * * * * * * * * * * * * * * * //

dimensions      [0 2 -3 0 0 0 0];


internalField   nonuniform List<scalar> 
12225
(
1085.6
2467.87
3645.42
4414.9
4812.3
4980.97
4975.89
4927.29
4841.78
4730.65
4622.45
4519.56
4428.14
4343.08
4272.82
4203.83
4156.29
4094.04
81.207
262.678
438.37
584.61
690.879
762.848
804.62
829.576
846.329
856.601
865.919
873.134
882.014
889.947
899.001
908.644
914.849
930.974
20.5547
51.215
83.4041
112.588
136.833
156.223
170.057
179.881
186.259
190.721
193.347
195.482
196.678
198.135
199.114
200.351
202.217
205.323
14.7501
21.8697
30.0047
38.5201
46.1921
53.0463
58.5966
63.2555
66.7266
69.6204
71.5769
73.2857
74.2707
75.2663
75.6679
76.2916
76.4803
77.1898
14.3591
16.3321
18.4501
21.4932
24.4318
27.2633
29.7293
31.9786
33.8101
35.4683
36.733
37.9088
38.7271
39.5471
40.0324
40.5941
40.9014
41.2856
14.6442
14.9535
15.4256
16.4577
17.6064
18.8286
19.9674
21.0745
22.0303
22.9433
23.6842
24.4077
24.9478
25.5156
25.8801
26.3293
26.5594
26.936
14.7183
14.6385
14.6734
14.8755
15.2169
15.683
16.1619
16.6712
17.1368
17.6086
18.0078
18.4171
18.7343
19.0823
19.3151
19.6134
19.767
20.0533
14.7545
14.5907
14.4691
14.4209
14.4417
14.5151
14.6473
14.8241
15.0016
15.2013
15.3781
15.5744
15.7307
15.9122
16.0372
16.2029
16.2911
16.4639
14.7641
14.5919
14.4345
14.3029
14.2031
14.1371
14.0972
14.0986
14.1106
14.1412
14.1779
14.2341
14.2786
14.3416
14.3842
14.4473
14.484
14.5535
14.7656
14.5942
14.432
14.2829
14.1466
14.0296
13.9257
13.8438
13.7745
13.7225
13.6772
13.6482
13.6203
13.6061
13.5889
13.5831
13.5723
13.5808
14.7657
14.5945
14.4323
14.2806
14.137
14.0052
13.8817
13.7707
13.6681
13.5779
13.4941
13.4221
13.354
13.2974
13.2408
13.1974
13.1474
13.1178
14.7657
14.5943
14.4323
14.2801
14.1358
14.0008
13.8729
13.7541
13.6419
13.5388
13.4412
13.3526
13.268
13.1926
13.1189
13.0553
12.9899
12.9372
14.7657
14.5941
14.4321
14.2797
14.1353
13.9995
13.8708
13.7498
13.6349
13.5273
13.425
13.3297
13.2387
13.1546
13.0735
12.9995
12.9271
12.862
14.7657
14.594
14.4319
14.2792
14.1349
13.9988
13.8699
13.7482
13.6328
13.5238
13.4203
13.3226
13.2297
13.1421
13.0585
12.9799
12.9047
12.8341
14.7657
14.5938
14.4317
14.2789
14.1345
13.9981
13.8692
13.7472
13.6317
13.5223
13.4185
13.3202
13.2267
13.1382
13.0539
12.974
12.8978
12.8256
14.7657
14.5938
14.4316
14.2786
14.1341
13.9976
13.8685
13.7464
13.6307
13.5212
13.4172
13.3187
13.2251
13.1362
13.0517
12.9715
12.895
12.8224
14.7657
14.5937
14.4315
14.2784
14.1338
13.9972
13.868
13.7458
13.63
13.5203
13.4162
13.3175
13.2238
13.1348
13.0502
12.9697
12.8932
12.8204
14.7657
14.5937
14.4314
14.2783
14.1336
13.9969
13.8677
13.7453
13.6294
13.5196
13.4155
13.3167
13.2228
13.1337
13.049
12.9685
12.8918
12.8189
14.7657
14.5937
14.4314
14.2782
14.1336
13.9968
13.8675
13.7451
13.6292
13.5193
13.4151
13.3162
13.2224
13.1332
13.0484
12.9678
12.8912
12.8182
14.7657
14.5937
14.4315
14.2783
14.1337
13.997
13.8677
13.7453
13.6294
13.5195
13.4153
13.3164
13.2226
13.1334
13.0487
12.9681
12.8915
12.8186
14.7657
14.5937
14.4316
14.2785
14.1339
13.9972
13.868
13.7457
13.6299
13.5201
13.4161
13.3175
13.2239
13.135
13.0508
12.9706
12.8946
12.8222
14.7657
14.5938
14.4317
14.2786
14.1343
13.9977
13.869
13.7472
13.6325
13.5239
13.4218
13.325
13.2342
13.1481
13.0674
12.9905
12.919
12.8502
14.7657
14.5937
14.4319
14.2789
14.1361
14.002
13.8782
13.7628
13.6572
13.5594
13.4706
13.3882
13.314
13.2445
13.1828
13.1236
13.0728
13.0212
14.7644
14.5922
14.4335
14.2871
14.1628
14.0551
13.9689
13.8978
13.8459
13.8049
13.7783
13.7582
13.7484
13.7419
13.7425
13.744
13.7518
13.7508
14.7478
14.5944
14.4764
14.4102
14.4235
14.4614
14.5555
14.6709
14.8173
14.9618
15.1244
15.2721
15.433
15.5696
15.7211
15.839
15.9798
16.0738
14.6504
14.7821
14.9369
15.3418
15.9229
16.5513
17.2346
17.8791
18.5393
19.1236
19.7152
20.2125
20.7235
21.1287
21.5631
21.8803
22.2502
22.4856
14.5719
16.1273
17.9726
20.4204
22.9246
25.2675
27.5497
29.5567
31.4962
33.1094
34.694
35.9234
37.1869
38.0779
39.0742
39.6865
40.4755
40.8672
16.544
25.88
36.7212
46.5575
55.8704
64.2818
72.1137
78.7579
84.8242
89.617
94.0454
97.2109
100.354
102.235
104.5
105.466
107.186
107.545
45.7965
105.215
164.45
217.257
267.882
313.505
353.737
386.197
413.34
433.786
450.75
462.873
473.079
479.98
487.036
490.548
496.4
497.757
632.343
1081.16
1534.75
1880.97
2183.45
2431.66
2631.41
2772.74
2875.85
2931.67
2968.56
2969.32
2962.24
2945.16
2917.14
2883.74
2847.85
2810.4
1.41924
1.99007
3.65852
5.31524
6.80915
8.1019
9.19026
10.0764
10.9362
11.7276
12.4844
13.2661
14.1523
15.2111
16.535
18.2158
20.2947
22.7357
25.5479
28.745
32.3803
36.5007
41.2047
46.5215
52.4824
59.1042
66.4309
74.4488
83.1637
92.5349
102.55
113.144
124.295
135.927
148.013
160.477
173.295
186.395
199.765
213.341
227.12
241.046
255.126
269.313
283.619
298.006
312.492
327.051
341.699
356.41
371.201
386.049
400.969
415.939
430.972
446.047
461.174
476.335
491.534
506.757
522.002
537.259
552.518
567.774
583.006
598.214
613.357
628.447
643.441
658.368
673.18
687.917
702.524
717.057
731.451
745.777
759.961
774.092
788.098
802.078
815.947
829.825
843.618
857.461
871.238
885.097
898.922
912.867
926.842
940.958
955.174
969.455
983.792
998.158
1012.55
1026.93
1041.29
1055.57
1069.72
1083.6
1097.05
1109.74
1121.3
1131.19
1137.19
1135.35
1146.33
1171.3
1172.97
1196.75
1200.58
1208.02
1210.67
1207.87
1213.17
1225.82
1222.59
1225.16
1228.55
1234.46
1232.04
1227.89
1222.24
1214.45
1205.07
1193.98
1181.17
1166.69
1150.42
1132.35
1112.53
1091.04
1067.96
1043.43
1017.36
989.694
960.845
930.955
900.227
868.901
837.118
804.934
773.032
741.685
709.542
682.393
662.053
642.823
623.814
604.994
586.466
568.269
550.555
533.187
516.014
499.33
483.437
468.089
453.149
438.698
424.833
411.63
399.108
387.199
375.879
365.152
355.009
345.413
336.347
327.785
319.702
312.044
304.817
297.834
291.369
284.488
278.827
270.58
264.369
243.306
7.0357
4.42223
4.2295
4.50005
4.9586
5.49398
6.07808
6.71283
7.41828
8.1912
9.04492
10.0052
11.1065
12.3847
13.8742
15.6017
17.5812
19.8136
22.3006
25.0437
28.0479
31.3167
34.8538
38.6529
42.7057
47.0004
51.527
56.2686
61.2117
66.3181
71.57
76.9469
82.4355
88.019
93.6881
99.4307
105.242
111.113
117.041
123.019
129.049
135.124
141.247
147.413
153.626
159.885
166.196
172.562
178.974
185.424
191.912
198.435
204.994
211.583
218.203
224.849
231.521
238.212
244.922
251.645
258.378
265.117
271.857
278.594
285.321
292.033
298.722
305.384
312.01
318.6
325.146
331.649
338.101
344.506
350.855
357.152
363.391
369.578
375.708
381.789
387.812
393.79
399.714
405.595
411.424
417.214
422.956
428.664
434.329
439.963
445.544
451.062
456.505
461.865
467.132
472.291
477.327
482.212
486.915
491.385
495.566
499.385
502.781
505.688
508.077
510.401
514.62
519.496
522.196
526.418
528.042
529.651
529.311
532.573
532.872
537.064
537.043
536.807
537.824
538.553
538.893
537.331
535.545
532.981
529.895
526.215
521.942
517.063
511.555
505.386
498.565
491.052
482.865
474.025
464.538
454.403
443.721
432.542
420.932
408.962
396.691
384.166
371.515
358.844
345.962
333.703
322.688
312.178
301.889
291.779
281.876
272.205
262.802
253.668
244.666
235.789
227.237
218.994
211.035
203.368
196.01
188.986
182.31
175.967
169.945
164.239
158.844
153.747
148.936
144.401
140.132
136.107
132.336
128.752
125.465
122.224
119.454
116.945
115.931
116.637
14.5735
7.52667
6.33354
6.17252
6.36104
6.73435
7.23218
7.83558
8.54834
9.38032
10.3475
11.47
12.7696
14.2659
15.9737
17.9009
20.0479
22.4093
24.977
27.7425
30.6979
33.8355
37.1475
40.6246
44.2584
48.0408
51.968
55.9851
60.0583
64.2199
68.4734
72.8139
77.2353
81.7299
86.2925
90.9185
95.6064
100.356
105.162
110.021
114.931
119.89
124.897
129.951
135.052
140.199
145.391
150.627
155.905
161.223
166.579
171.973
177.401
182.864
188.358
193.882
199.434
205.01
210.609
216.227
221.86
227.505
233.158
238.814
244.468
250.116
255.752
261.37
266.965
272.533
278.067
283.565
289.019
294.427
299.782
305.08
310.318
315.492
320.597
325.631
330.589
335.471
340.273
344.992
349.625
354.173
358.631
362.998
367.274
371.456
375.54
379.517
383.381
387.13
390.756
394.254
397.613
400.825
403.875
406.748
409.429
411.912
414.2
416.326
418.376
420.541
423.053
425.455
427.374
429.315
430.618
431.782
432.699
434.137
435.017
436.338
436.785
436.87
436.917
436.872
436.444
435.369
433.991
432.148
429.888
427.176
423.996
420.324
416.14
411.42
406.158
400.341
393.975
387.073
379.647
371.717
363.329
354.527
345.355
335.864
326.099
316.103
305.941
295.689
285.394
275.359
265.822
256.616
247.624
238.821
230.218
221.836
213.697
205.806
198.13
190.665
183.465
176.471
169.699
163.179
156.901
150.891
145.16
139.702
134.512
129.587
124.923
120.511
116.344
112.412
108.708
105.222
101.951
98.8695
96.0203
93.3111
90.934
88.701
87.2416
87.2771
22.7971
10.7486
8.70135
8.22659
8.26824
8.57518
9.06042
9.69344
10.4686
11.3924
12.4779
13.7405
15.1949
16.8515
18.715
20.7833
23.0487
25.4992
28.1218
30.9034
33.8328
36.9003
40.0973
43.4155
46.8468
50.3808
54.0036
57.7281
61.567
65.5026
69.5296
73.6466
77.8471
82.1205
86.4602
90.8589
95.3063
99.8233
104.405
109.048
113.752
118.513
123.332
128.206
133.134
138.114
143.145
148.227
153.356
158.533
163.755
169.021
174.331
179.681
185.072
190.5
195.964
201.462
206.99
212.546
218.127
223.728
229.347
234.977
240.616
246.256
251.893
257.52
263.132
268.723
274.286
279.813
285.3
290.737
296.119
301.439
306.689
311.862
316.952
321.952
326.856
331.659
336.353
340.936
345.4
349.743
353.96
358.047
362.001
365.822
369.506
373.049
376.447
379.699
382.802
385.755
388.555
391.199
393.682
396.004
398.164
400.168
402.032
403.787
405.482
407.182
408.895
410.48
411.853
413.085
414.062
414.906
415.624
416.388
416.873
417.331
417.431
417.09
416.784
416.267
415.442
414.237
412.712
410.814
408.532
405.84
402.713
399.128
395.062
390.497
385.421
379.823
373.701
367.067
359.942
352.348
344.32
335.896
327.117
318.025
308.667
299.097
289.39
279.625
269.881
260.3
250.996
241.939
233.093
224.45
216.023
207.828
199.883
192.196
184.761
177.576
170.659
163.996
157.585
151.427
145.47
139.751
134.279
129.052
124.07
119.332
114.836
110.574
106.542
102.734
99.1423
95.7604
92.584
89.6008
86.8288
84.233
81.9065
79.7801
78.12
77.497
31.108
14.1416
11.228
10.4607
10.3796
10.6405
11.1262
11.7902
12.618
13.6102
14.7745
16.1213
17.6595
19.3944
21.3259
23.4481
25.7509
28.2213
30.8459
33.6119
36.509
39.5288
42.6647
45.9116
49.2653
52.7222
56.2801
59.9405
63.7042
67.5668
71.5237
75.5696
79.7019
83.9205
88.2234
92.6089
97.078
101.627
106.254
110.954
115.727
120.571
125.483
130.461
135.504
140.61
145.778
151.006
156.293
161.637
167.037
172.492
178.001
183.562
189.173
194.834
200.541
206.293
212.088
217.922
223.792
229.694
235.624
241.578
247.55
253.534
259.524
265.514
271.495
277.461
283.403
289.313
295.182
301
306.759
312.448
318.058
323.58
329.003
334.319
339.518
344.593
349.533
354.333
358.986
363.484
367.822
371.996
376.002
379.837
383.501
386.99
390.302
393.438
396.397
399.179
401.787
404.219
406.477
408.565
410.485
412.247
413.861
415.346
416.727
418.022
419.224
420.289
421.195
421.946
422.508
422.958
423.197
423.242
423.196
423.042
422.609
421.965
421.158
420.13
418.832
417.228
415.314
413.06
410.441
407.434
404.011
400.147
395.82
391.011
385.708
379.9
373.586
366.778
359.489
351.743
343.568
334.999
326.075
316.842
307.358
297.69
287.91
278.094
268.32
258.678
249.236
240.007
230.986
222.182
213.607
205.28
197.216
189.424
181.907
174.666
167.707
161.025
154.617
148.478
142.585
136.943
131.528
126.336
121.374
116.643
112.143
107.868
103.816
99.9835
96.3644
92.9537
89.7449
86.7333
83.9276
81.3156
78.9455
76.8043
75.0202
73.9117
38.9918
17.5038
13.7789
12.7414
12.5536
12.7748
13.2603
13.9468
14.8104
15.8449
17.0529
18.4397
20.0106
21.7677
23.7093
25.8296
28.1192
30.567
33.1616
35.8924
38.751
41.7308
44.8272
48.0372
51.3587
54.7906
58.3325
61.9843
65.7458
69.6153
73.591
77.6707
81.8527
86.136
90.5194
95.0014
99.5808
104.255
109.023
113.88
118.825
123.856
128.971
134.167
139.442
144.795
150.223
155.726
161.301
166.947
172.663
178.447
184.299
190.217
196.2
202.246
208.354
214.52
220.744
227.021
233.349
239.724
246.142
252.596
259.082
265.593
272.122
278.661
285.201
291.734
298.248
304.735
311.183
317.58
323.914
330.173
336.345
342.417
348.376
354.211
359.909
365.459
370.851
376.073
381.116
385.973
390.635
395.097
399.354
403.403
407.242
410.868
414.281
417.48
420.467
423.244
425.813
428.176
430.336
432.299
434.069
435.652
437.059
438.299
439.387
440.33
441.128
441.757
442.23
442.548
442.624
442.463
442.164
441.729
441.139
440.384
439.416
438.242
436.865
435.259
433.395
431.249
428.803
426.031
422.909
419.412
415.512
411.185
406.408
401.162
395.432
389.21
382.494
375.288
367.607
359.47
350.904
341.945
332.637
323.036
313.206
303.213
293.131
283.029
272.978
263.047
253.289
243.729
234.382
225.264
216.393
207.785
199.457
191.418
183.675
176.231
169.086
162.24
155.686
149.418
143.425
137.699
132.227
126.998
121.985
117.191
112.617
108.262
104.125
100.205
96.4991
93.004
89.7128
86.6262
83.7462
81.0702
78.625
76.4186
74.5241
73.0634
46.2586
20.7187
16.2565
14.9708
14.6854
14.8679
15.3483
16.047
16.9306
17.9863
19.2116
20.6082
22.1786
23.9236
25.8416
27.9281
30.1763
32.5778
35.1241
37.8075
40.6215
43.5613
46.6238
49.8071
53.1104
56.5334
60.0763
63.7393
67.5228
71.4264
75.4494
79.5912
83.851
88.228
92.7213
97.3296
102.052
106.885
111.829
116.88
122.036
127.295
132.655
138.114
143.668
149.317
155.059
160.89
166.812
172.821
178.916
185.097
191.362
197.71
204.14
210.65
217.24
223.906
230.647
237.46
244.341
251.287
258.293
265.354
272.462
279.612
286.794
294
301.221
308.444
315.659
322.852
330.012
337.123
344.171
351.141
358.017
364.785
371.427
377.93
384.277
390.455
396.449
402.246
407.834
413.202
418.34
423.242
427.899
432.308
436.467
440.371
444.02
447.414
450.553
453.441
456.08
458.472
460.623
462.537
464.219
465.676
466.915
467.942
468.766
469.389
469.831
470.029
469.987
469.786
469.35
468.713
467.884
466.87
465.67
464.273
462.665
460.837
458.785
456.493
453.944
451.117
447.996
444.559
440.782
436.641
432.113
427.172
421.797
415.967
409.669
402.892
395.633
387.893
379.685
371.028
361.95
352.493
342.707
332.648
322.381
311.973
301.493
291.008
280.582
270.276
260.134
250.19
240.467
230.985
221.765
212.824
204.179
195.841
187.816
180.109
172.719
165.644
158.88
152.419
146.251
140.367
134.756
129.406
124.299
119.416
114.739
110.271
106.018
101.981
98.1611
94.5547
91.1588
87.971
84.9931
82.2262
79.6862
77.3863
75.3756
73.6462
53.332
23.828
18.6259
17.0857
16.6979
16.8364
17.3043
18.0056
18.8971
19.9597
21.1863
22.5753
24.1272
25.8425
27.7203
29.7578
31.9509
34.2944
36.7826
39.4104
42.1735
45.0688
48.0941
51.2486
54.532
57.9448
61.4877
65.1615
68.9671
72.9051
76.9758
81.1795
85.5162
89.9857
94.5876
99.3211
104.185
109.179
114.3
119.547
124.917
130.409
136.021
141.75
147.595
153.553
159.622
165.802
172.089
178.484
184.985
191.591
198.301
205.114
212.03
219.046
226.163
233.377
240.687
248.091
255.585
263.164
270.825
278.561
286.366
294.231
302.148
310.107
318.095
326.102
334.112
342.112
350.086
358.018
365.889
373.682
381.379
388.96
396.406
403.699
410.82
417.75
424.473
430.972
437.232
443.239
448.981
454.446
459.627
464.518
469.114
473.41
477.404
481.096
484.487
487.578
490.371
492.871
495.081
497.007
498.653
500.026
501.134
501.981
502.572
502.86
502.882
502.662
502.205
501.507
500.555
499.362
497.935
496.278
494.394
492.278
489.923
487.326
484.481
481.378
478.007
474.355
470.409
466.15
461.561
456.622
451.31
445.605
439.487
432.936
425.939
418.484
410.566
402.189
393.363
384.111
374.465
364.468
354.168
343.623
332.893
322.043
311.139
300.245
289.421
278.722
268.191
257.863
247.764
237.919
228.349
219.073
210.106
201.462
193.146
185.163
177.513
170.193
163.197
156.519
150.149
144.079
138.295
132.787
127.539
122.535
117.748
113.157
108.776
104.611
100.665
96.9364
93.4237
90.1246
87.0394
84.1703
81.5269
79.1212
76.9887
75.0478
62.0569
27.0992
20.9215
19.0577
18.5405
18.6204
19.0661
19.7616
20.6531
21.7148
22.935
24.3091
25.8361
27.516
29.3485
31.3328
33.4669
35.7482
38.1739
40.741
43.4474
46.2912
49.2717
52.3888
55.6429
59.0351
62.5667
66.2392
70.0541
74.0129
78.1169
82.3669
86.764
91.3087
96.0011
100.841
105.829
110.964
116.244
121.669
127.238
132.948
138.797
144.785
150.909
157.168
163.559
170.082
176.735
183.518
190.429
197.467
204.633
211.925
219.343
226.886
234.553
242.343
250.253
258.282
266.425
274.68
283.041
291.502
300.056
308.693
317.405
326.18
335.005
343.866
352.748
361.634
370.505
379.343
388.127
396.836
405.448
413.94
422.291
430.476
438.475
446.264
453.823
461.132
468.172
474.924
481.375
487.511
493.319
498.792
503.923
508.706
513.137
517.214
520.938
524.308
527.329
530.001
532.33
534.319
535.975
537.305
538.318
539.002
539.328
539.307
539.003
538.398
537.494
536.292
534.79
532.996
530.913
528.548
525.904
522.982
519.78
516.299
512.536
508.488
504.151
499.521
494.588
489.344
483.775
477.868
471.608
464.979
457.963
450.547
442.716
434.463
425.784
416.684
407.178
397.288
387.047
376.496
365.68
354.65
343.467
332.189
320.877
309.593
298.394
287.331
276.444
265.769
255.334
245.162
235.277
225.698
216.438
207.513
198.929
190.69
182.795
175.241
168.022
161.132
154.563
148.303
142.341
136.666
131.263
126.118
121.209
116.493
111.982
107.689
103.617
99.7674
96.1375
92.7259
89.5321
86.5579
83.809
81.2942
79.0391
76.9229
70.352
30.1319
22.9996
20.8088
20.1554
20.1709
20.5883
21.2732
22.1609
23.219
24.4312
25.7903
27.2934
28.9399
30.7299
32.6637
34.741
36.9614
39.3242
41.8284
44.4735
47.2594
50.1865
53.2554
56.4677
59.8251
63.3296
66.9836
70.7894
74.7493
78.8654
83.1395
87.5733
92.1681
96.9251
101.845
106.929
112.177
117.589
123.165
128.904
134.806
140.869
147.092
153.475
160.015
166.712
173.564
180.571
187.732
195.047
202.515
210.136
217.91
225.836
233.915
242.145
250.525
259.055
267.731
276.551
285.511
294.605
303.827
313.169
322.623
332.177
341.818
351.534
361.307
371.12
380.955
390.79
400.603
410.372
420.071
429.675
439.159
448.494
457.655
466.616
475.349
483.83
492.035
499.94
507.524
514.77
521.658
528.176
534.311
540.055
545.399
550.338
554.869
558.991
562.703
566.007
568.905
571.4
573.497
575.201
576.522
577.462
577.974
578.082
577.821
577.194
576.202
574.845
573.126
571.045
568.607
565.817
562.682
559.205
555.391
551.243
546.765
541.959
536.829
531.378
525.609
519.523
513.118
506.392
499.339
491.954
484.228
476.153
467.719
458.919
449.752
440.218
430.324
420.087
409.528
398.679
387.577
376.259
364.772
353.169
341.504
329.832
318.208
306.69
295.324
284.148
273.193
262.488
252.056
241.919
232.094
222.598
213.444
204.639
196.187
188.086
180.333
172.921
165.846
159.098
152.667
146.541
140.709
135.158
129.872
124.832
119.994
115.361
110.949
106.76
102.797
99.0577
95.5397
92.2425
89.1669
86.3156
83.6943
81.3208
79.0565
77.5716
32.7515
24.7724
22.2846
21.5016
21.4577
21.8434
22.5158
23.3991
24.4543
25.6612
27.0093
28.494
30.1137
31.8685
33.759
35.7862
37.951
40.2541
42.6964
45.279
48.0029
50.8698
53.8816
57.0408
60.35
63.8123
67.431
71.2094
75.1508
79.2583
83.5346
87.9821
92.602
97.3965
102.368
107.517
112.848
118.361
124.059
129.94
136.007
142.258
148.692
155.311
162.112
169.096
176.262
183.61
191.139
198.85
206.742
214.817
223.073
231.512
240.133
248.937
257.922
267.087
276.43
285.948
295.637
305.492
315.506
325.671
335.976
346.41
356.96
367.609
378.339
389.131
399.964
410.815
421.657
432.465
443.21
453.864
464.396
474.775
484.972
494.954
504.692
514.155
523.316
532.146
540.622
548.719
556.418
563.7
570.551
576.958
582.913
588.407
593.437
597.998
602.091
605.716
608.874
611.567
613.799
615.577
616.905
617.775
618.161
618.092
617.582
616.634
615.25
613.43
611.173
608.484
605.363
601.817
597.849
593.468
588.677
583.486
577.899
571.927
565.578
558.864
551.797
544.387
536.644
528.577
520.193
511.5
502.501
493.198
483.595
473.694
463.502
453.025
442.271
431.256
420.003
408.54
396.903
385.113
373.211
361.243
349.255
337.294
325.406
313.653
302.073
290.698
279.557
268.674
258.072
247.769
237.782
228.125
218.815
209.858
201.257
193.008
185.109
177.553
170.334
163.446
156.879
150.619
144.656
138.976
133.565
128.403
123.449
118.709
114.193
109.905
105.843
102.008
98.3959
95.006
91.838
88.8923
86.1719
83.6883
81.2991
83.461
34.8777
26.1936
23.4521
22.5535
22.4566
22.8167
23.4792
24.3604
25.4162
26.6224
27.966
29.4404
31.0428
32.7725
34.6303
36.6174
38.7356
40.9866
43.3727
45.8959
48.5587
51.364
54.3149
57.4149
60.6681
64.0786
67.6509
71.3898
75.2999
79.3854
83.6504
88.0991
92.7273
97.539
102.538
107.725
113.111
118.702
124.497
130.5
136.711
143.131
149.76
156.6
163.65
170.912
178.384
186.068
193.963
202.071
210.392
218.926
227.674
236.638
245.816
255.21
264.818
274.64
284.673
294.916
305.362
316.007
326.844
337.863
349.054
360.402
371.894
383.512
395.235
407.043
418.91
430.811
442.718
454.6
466.426
478.163
489.777
501.233
512.496
523.531
534.302
544.776
554.92
564.702
574.093
583.066
591.596
599.662
607.248
614.337
620.917
626.98
632.52
637.532
642.015
645.968
649.392
652.289
654.661
656.511
657.844
658.65
658.922
658.67
657.899
656.615
654.82
652.511
649.689
646.351
642.502
638.144
633.281
627.92
622.068
615.735
608.931
601.67
593.967
585.843
577.319
568.416
559.157
549.566
539.667
529.484
519.036
508.346
497.427
486.295
474.974
463.468
451.79
439.958
427.99
415.915
403.757
391.53
379.271
367.014
354.795
342.646
330.602
318.722
307.042
295.585
284.373
273.426
262.764
252.402
242.354
232.632
223.257
214.236
205.567
197.246
189.269
181.63
174.327
167.352
160.694
154.343
148.285
142.509
137
131.735
126.686
121.862
117.266
112.9
108.762
104.85
101.161
97.6942
94.4475
91.4199
88.6119
86.0305
83.5379
87.8658
36.4681
27.2445
24.3036
23.3116
23.172
23.5128
24.1695
25.0526
26.1138
27.3257
28.6729
30.1469
31.7435
33.461
35.2997
37.2608
39.3462
41.5583
43.9
46.3744
48.985
51.7359
54.6315
57.6765
60.8764
64.2366
67.7633
71.4633
75.3431
79.4062
83.6568
88.0994
92.7256
97.5465
102.567
107.786
113.225
118.886
124.774
130.891
137.244
143.833
150.66
157.726
165.033
172.581
180.373
188.408
196.688
205.214
213.987
223.006
232.275
241.793
251.561
261.578
271.845
282.361
293.122
304.126
315.367
326.84
338.537
350.446
362.556
374.853
387.318
399.934
412.677
425.523
438.446
451.415
464.4
477.367
490.282
503.106
515.803
528.333
540.657
552.735
564.529
576
587.111
597.826
608.112
617.938
627.276
636.102
644.394
652.137
659.314
665.916
671.935
677.367
682.209
686.46
690.12
693.189
695.67
697.564
698.875
699.6
699.727
699.254
698.178
696.518
694.269
691.425
687.984
683.942
679.301
674.06
668.225
661.799
654.791
647.211
639.075
630.398
621.205
611.522
601.382
590.82
579.873
568.582
556.995
545.15
533.091
520.864
508.492
496.009
483.387
470.694
457.972
445.243
432.527
419.853
407.251
394.701
382.198
369.769
357.437
345.22
333.132
321.275
309.651
298.268
287.14
276.28
265.705
255.426
245.45
235.783
226.453
217.47
208.829
200.525
192.553
184.907
177.588
170.59
163.901
157.511
151.406
145.574
140.001
134.664
129.558
124.683
120.038
115.622
111.434
107.469
103.727
100.202
96.8944
93.8009
90.9208
88.2567
85.6822
90.7416
37.5141
27.9275
24.8482
23.79
23.6211
23.9511
24.6085
25.4995
26.5731
27.7994
29.1609
30.6474
32.2532
33.9756
35.814
37.7692
39.8429
42.0376
44.3567
46.8039
49.3836
52.101
54.9617
57.9719
61.1392
64.4696
67.969
71.6449
75.5044
79.5525
83.7933
88.2296
92.8683
97.7167
102.782
108.07
113.593
119.357
125.37
131.638
138.166
144.957
152.015
159.343
166.947
174.827
182.986
191.423
200.141
209.141
218.422
227.988
237.837
247.972
258.392
269.097
280.085
291.355
302.904
314.727
326.819
339.172
351.776
364.62
377.688
390.965
404.432
418.065
431.841
445.733
459.709
473.739
487.787
501.816
515.788
529.663
543.398
556.952
570.28
583.341
596.091
608.488
620.491
632.062
643.162
653.759
663.821
673.32
682.234
690.543
698.23
705.284
711.697
717.463
722.581
727.047
730.862
734.025
736.538
738.404
739.623
740.194
740.106
739.33
737.877
735.766
732.984
729.525
725.381
720.547
715.021
708.8
701.888
694.288
686.009
677.061
667.462
657.234
646.407
635.017
623.109
610.731
597.935
584.782
571.352
557.695
543.858
529.821
515.733
501.681
487.805
474.085
460.479
447.009
433.689
420.541
407.617
394.787
382.11
369.601
357.269
345.116
333.119
321.394
309.921
298.704
287.751
277.071
266.676
256.573
246.764
237.241
228.083
219.263
210.768
202.592
194.727
187.164
179.91
172.963
166.311
159.943
153.845
148.006
142.411
137.057
131.94
127.054
122.397
117.966
113.759
109.771
105.999
102.441
99.0936
95.9538
93.0198
90.2913
87.6566
91.981
38.0013
28.2536
25.1088
24.0183
23.8362
24.1675
24.8359
25.7456
26.8436
28.0985
29.491
31.0095
32.6471
34.3999
36.2665
38.247
40.3427
42.5561
44.8905
47.35
49.9398
52.6659
55.5356
58.5544
61.7288
65.0663
68.5748
72.2628
76.1385
80.2096
84.4837
88.9689
93.6739
98.6081
103.781
109.202
114.881
120.826
127.047
133.551
140.345
147.433
154.822
162.515
170.516
178.829
187.457
196.404
205.668
215.25
225.152
235.374
245.916
256.777
267.957
279.454
291.265
303.388
315.817
328.545
341.566
354.869
368.441
382.269
396.335
410.621
425.103
439.758
454.556
469.469
484.463
499.503
514.55
529.565
544.507
559.332
573.995
588.452
602.656
616.561
630.122
643.295
656.035
668.301
680.053
691.256
701.876
711.884
721.254
729.965
738
745.345
751.993
757.938
763.178
767.711
771.536
774.653
777.062
778.767
779.765
780.05
779.625
778.409
776.461
773.773
770.332
766.13
761.154
755.397
748.852
741.518
733.391
724.478
714.785
704.325
693.117
681.19
668.578
655.327
641.503
627.164
612.377
597.171
581.598
565.834
550.004
534.359
518.815
503.458
488.423
473.541
458.937
444.646
430.68
417.047
403.744
390.737
378.017
365.576
353.405
341.492
329.83
318.436
307.31
296.451
285.86
275.541
265.498
255.736
246.252
237.028
228.131
219.548
211.27
203.291
195.603
188.188
181.089
174.28
167.743
161.469
155.443
149.655
144.108
138.801
133.725
128.876
124.249
119.842
115.651
111.672
107.901
104.335
100.972
97.8084
94.8418
92.069
89.3967
91.9222
37.986
28.2465
25.1075
24.0269
23.8634
24.224
24.9247
25.8752
27.0227
28.3344
29.7902
31.3771
33.0873
34.916
36.8611
38.9225
41.1009
43.3982
45.8175
48.3629
51.0392
53.8521
56.8077
59.9139
63.1789
66.6117
70.222
74.02
78.0161
82.2211
86.6457
91.3013
96.1995
101.352
106.771
112.468
118.454
124.74
131.334
138.247
145.487
153.059
160.971
169.227
177.831
186.785
196.091
205.754
215.774
226.15
236.881
247.965
259.402
271.188
283.321
295.796
308.607
321.748
335.21
348.984
363.057
377.416
392.046
406.926
422.038
437.358
452.86
468.515
484.295
500.164
516.087
532.027
547.944
563.795
579.537
595.125
610.514
625.656
640.504
655.012
669.133
682.822
696.033
708.725
720.857
732.392
743.296
753.539
763.095
771.94
780.057
787.434
794.06
799.932
805.048
809.406
813.005
815.845
817.926
819.251
819.814
819.616
818.605
816.757
814.103
810.63
806.322
801.164
795.145
788.252
780.476
771.813
762.259
751.817
740.496
728.311
715.281
701.451
686.854
671.538
655.487
638.814
621.667
604.267
586.775
569.209
551.783
534.329
517.077
500.153
483.651
467.598
452.041
437.008
422.504
408.521
395.037
382.019
369.433
357.247
345.43
333.951
322.787
311.922
301.343
291.038
281.001
271.227
261.715
252.463
243.47
234.731
226.265
218.074
210.156
202.503
195.112
187.964
181.087
174.473
168.105
161.976
156.083
150.415
144.992
139.799
134.827
130.07
125.521
121.179
117.042
113.106
109.367
105.822
102.47
99.3068
96.3303
93.5348
90.8477
90.5199
37.5501
27.9832
24.9211
23.9008
23.803
24.237
25.0172
26.0594
27.3102
28.7378
30.3218
32.0491
33.9111
35.9028
38.021
40.2645
42.6339
45.131
47.759
50.522
53.4251
56.4744
59.677
63.0416
66.5776
70.2957
74.2071
78.3241
82.6594
87.2262
92.0384
97.11
102.455
108.089
114.025
120.278
126.861
133.784
141.058
148.694
156.698
165.079
173.845
182.998
192.54
202.471
212.789
223.493
234.582
246.054
257.905
270.132
282.729
295.689
309.003
322.664
336.659
350.976
365.603
380.522
395.718
411.17
426.858
442.757
458.842
475.088
491.464
507.939
524.482
541.056
557.627
574.154
590.599
606.919
623.073
639.017
654.706
670.094
685.137
699.79
714.008
727.746
740.963
753.617
765.668
777.082
787.825
797.868
807.185
815.752
823.552
830.571
836.801
842.237
846.879
850.725
853.775
856.024
857.478
858.135
857.989
857.016
855.147
852.411
848.795
844.282
838.855
832.496
825.189
816.919
807.677
797.454
786.247
774.055
760.896
746.782
731.73
715.695
698.774
681.069
662.807
644.075
624.935
605.624
586.006
566.341
546.806
527.504
508.587
490.191
472.423
455.347
439.007
423.422
408.587
394.475
381.048
368.252
356.031
344.33
333.093
322.269
311.812
301.686
291.859
282.308
273.016
263.971
255.165
246.593
238.247
230.125
222.233
214.575
207.146
199.943
192.964
186.206
179.663
173.346
167.251
161.375
155.713
150.255
145.017
139.99
135.168
130.546
126.118
121.888
117.85
113.998
110.328
106.838
103.526
100.391
97.4311
94.6373
91.9604
87.853
36.6303
27.4441
24.5734
23.7019
23.7502
24.3304
25.2629
26.4727
27.9102
29.5452
31.3581
33.3362
35.4715
37.7588
40.1952
42.7798
45.5129
48.3966
51.4341
54.6298
57.9891
61.5185
65.2259
69.1206
73.2131
77.5153
82.04
86.8009
91.8126
97.0903
102.65
108.507
114.678
121.181
128.031
135.244
142.835
150.813
159.186
167.962
177.147
186.744
196.753
207.177
218.016
229.267
240.927
252.988
265.445
278.29
291.513
305.105
319.054
333.346
347.967
362.902
378.131
393.636
409.395
425.388
441.588
457.972
474.513
491.182
507.95
524.788
541.665
558.551
575.412
592.217
608.931
625.519
641.944
658.17
674.159
689.872
705.268
720.309
734.954
749.162
762.893
776.107
788.766
800.831
812.268
823.043
833.127
842.491
851.11
858.961