/*--------------------------------*- C++ -*----------------------------------*\
| =========                 |                                                 |
| \\      /  F ield         | OpenFOAM: The Open Source CFD Toolbox           |
|  \\    /   O peration     | Version:  v2006                                 |
|   \\  /    A nd           | Website:  www.openfoam.com                      |
|    \\/     M anipulation  |                                                 |
\*---------------------------------------------------------------------------*/
FoamFile
{
    version     2.0;
    format      ascii;
    class       volScalarField;
    location    "100";
    object      k;
}
// * * * * * * * * * * * * * * * * * * * * * * * * * * * * * * * * * * * * * //

dimensions      [0 2 -2 0 0 0 0];


internalField   nonuniform List<scalar> 
12225
(
0.571465
0.98767
1.28116
1.45561
1.54171
1.57753
1.5758
1.56742
1.54737
1.52406
1.50086
1.47854
1.45855
1.43981
1.42425
1.40888
1.39828
1.38422
0.438464
0.496983
0.521822
0.535034
0.542695
0.547522
0.550013
0.552289
0.555746
0.559437
0.565237
0.570995
0.579127
0.586577
0.596171
0.604676
0.614406
0.623897
0.387563
0.417493
0.42419
0.421532
0.41498
0.405045
0.393744
0.382872
0.371887
0.362464
0.353217
0.346113
0.338966
0.334298
0.329091
0.326602
0.322968
0.322129
0.376178
0.384809
0.388127
0.387418
0.385424
0.381163
0.375661
0.369585
0.363103
0.356586
0.350105
0.34383
0.337826
0.332098
0.32679
0.321723
0.317182
0.312771
0.374177
0.37537
0.376398
0.375932
0.374797
0.37252
0.36961
0.366148
0.362483
0.358485
0.354561
0.350392
0.346533
0.342416
0.338816
0.334868
0.331642
0.327919
0.373737
0.372542
0.371997
0.371084
0.369916
0.368273
0.36634
0.364039
0.361644
0.358977
0.35638
0.353551
0.350928
0.348069
0.345541
0.342733
0.34038
0.337673
0.373769
0.371725
0.37023
0.368833
0.367464
0.365944
0.364347
0.362557
0.360738
0.358757
0.35682
0.354742
0.352781
0.350682
0.348766
0.346696
0.344879
0.342865
0.373818
0.371563
0.36962
0.367861
0.366251
0.364666
0.363124
0.361526
0.359949
0.358304
0.356702
0.355035
0.35344
0.351783
0.350229
0.348608
0.347126
0.345551
0.373832
0.371554
0.369457
0.367511
0.365723
0.364027
0.36243
0.360865
0.359359
0.357857
0.356408
0.354952
0.353551
0.352142
0.350799
0.349442
0.348168
0.346865
0.373832
0.37156
0.369425
0.36741
0.36553
0.363754
0.362089
0.360496
0.358985
0.357521
0.356122
0.354756
0.353447
0.352161
0.350932
0.34972
0.348567
0.347423
0.37383
0.371561
0.369417
0.367385
0.365469
0.363654
0.361944
0.36032
0.358783
0.357314
0.355918
0.354577
0.353297
0.352063
0.350883
0.349741
0.348648
0.347589
0.373828
0.371559
0.369412
0.367376
0.365449
0.363621
0.361891
0.36025
0.358694
0.357214
0.355808
0.354466
0.353189
0.351966
0.350799
0.349681
0.34861
0.347583
0.373827
0.371557
0.369407
0.367369
0.365437
0.363604
0.361866
0.360216
0.358649
0.35716
0.355744
0.354396
0.353114
0.351891
0.350724
0.349611
0.348547
0.347531
0.373827
0.371555
0.369403
0.367363
0.365428
0.363592
0.36185
0.360194
0.358622
0.357126
0.355704
0.35435
0.353062
0.351834
0.350664
0.349548
0.348482
0.347467
0.373826
0.371553
0.369399
0.367357
0.36542
0.363582
0.361836
0.360178
0.358602
0.357102
0.355676
0.354318
0.353025
0.351793
0.350619
0.349499
0.34843
0.347411
0.373826
0.371552
0.369396
0.367352
0.365413
0.363573
0.361825
0.360164
0.358585
0.357083
0.355654
0.354293
0.352997
0.351762
0.350584
0.349461
0.348389
0.347367
0.373825
0.371551
0.369394
0.367349
0.365408
0.363566
0.361816
0.360153
0.358572
0.357068
0.355636
0.354273
0.352974
0.351736
0.350556
0.349431
0.348357
0.347332
0.373825
0.371551
0.369393
0.367347
0.365405
0.363561
0.36181
0.360145
0.358563
0.357056
0.355623
0.354258
0.352957
0.351718
0.350536
0.349409
0.348333
0.347307
0.373825
0.371551
0.369393
0.367346
0.365404
0.36356
0.361808
0.360142
0.358559
0.357051
0.355617
0.354251
0.352949
0.351708
0.350526
0.349397
0.348321
0.347294
0.373826
0.371551
0.369394
0.367348
0.365406
0.363562
0.36181
0.360145
0.358562
0.357054
0.35562
0.354254
0.352953
0.351712
0.35053
0.349401
0.348326
0.347298
0.373826
0.371552
0.369396
0.367351
0.365409
0.363567
0.361816
0.360152
0.358569
0.357064
0.35563
0.354266
0.352966
0.351727
0.350546
0.34942
0.348345
0.347319
0.373826
0.371553
0.369398
0.367355
0.365415
0.363575
0.361827
0.360167
0.35859
0.35709
0.355662
0.354303
0.353009
0.351775
0.350599
0.349475
0.348404
0.347379
0.373826
0.371555
0.369401
0.367363
0.365431
0.363605
0.361874
0.360236
0.35868
0.357201
0.355792
0.354448
0.353164
0.351935
0.350758
0.34963
0.348548
0.347508
0.373827
0.371555
0.369413
0.367418
0.365544
0.363793
0.362137
0.360571
0.359069
0.35763
0.356238
0.354893
0.353585
0.352319
0.351086
0.34989
0.348724
0.347596
0.373819
0.371564
0.369582
0.367845
0.366223
0.364711
0.363218
0.361752
0.360265
0.358785
0.357286
0.355797
0.354303
0.35283
0.351357
0.34992
0.34849
0.347105
0.373767
0.371946
0.370917
0.369978
0.368912
0.367766
0.366326
0.364735
0.362932
0.361059
0.359057
0.35705
0.354967
0.35292
0.35084
0.34882
0.346786
0.344833
0.374093
0.3752
0.37726
0.377562
0.377091
0.375808
0.373489
0.370864
0.367803
0.364685
0.361328
0.358024
0.354601
0.351286
0.347919
0.344694
0.341468
0.338407
0.377677
0.394075
0.402941
0.402351
0.400305
0.396043
0.390665
0.385163
0.379135
0.373299
0.367224
0.361471
0.355723
0.350301
0.345132
0.340195
0.335731
0.331325
0.405778
0.438979
0.45119
0.455819
0.459119
0.46228
0.464993
0.467261
0.469263
0.470891
0.472549
0.473993
0.475622
0.477157
0.479302
0.480936
0.483775
0.485499
0.479012
0.684925
0.865147
0.9908
1.09436
1.1758
1.23934
1.28333
1.31495
1.3319
1.34305
1.34327
1.34113
1.33596
1.32747
1.31731
1.30635
1.29486
0.00955646
0.0196212
0.0293453
0.0375671
0.0442491
0.0496289
0.0539282
0.057388
0.0606502
0.0635779
0.0663536
0.0692024
0.0723903
0.0761321
0.0807137
0.0863124
0.0928665
0.100202
0.108293
0.117114
0.126737
0.137201
0.148657
0.161066
0.174396
0.188595
0.203675
0.219512
0.236058
0.253187
0.270835
0.288863
0.30722
0.325775
0.344487
0.363244
0.382026
0.400741
0.41939
0.437902
0.456291
0.474502
0.492559
0.510418
0.528112
0.545606
0.562937
0.58008
0.597075
0.613896
0.630575
0.647093
0.663476
0.679706
0.695804
0.711752
0.727569
0.743238
0.75877
0.774153
0.789392
0.804476
0.819403
0.83417
0.848764
0.863186
0.877411
0.891447
0.905257
0.918859
0.932218
0.945367
0.958264
0.970953
0.983384
0.995615
1.00759
1.01938
1.03093
1.04232
1.05349
1.06454
1.07539
1.08615
1.09674
1.10728
1.11768
1.12806
1.13837
1.14869
1.15901
1.16931
1.17958
1.18981
1.20002
1.21016
1.22024
1.2302
1.23999
1.24949
1.25853
1.26676
1.27357
1.27757
1.2752
1.28212
1.29944
1.29859
1.31438
1.313
1.32988
1.3257
1.32667
1.33076
1.3404
1.33726
1.33963
1.34795
1.34595
1.34393
1.3472
1.3423
1.33906
1.33356
1.32682
1.31889
1.30972
1.29935
1.28772
1.27476
1.26043
1.24479
1.22783
1.20961
1.19016
1.16933
1.14727
1.1241
1.09992
1.07485
1.04904
1.02254
0.995398
0.968317
0.941126
0.913146
0.890456
0.872319
0.854713
0.837112
0.819522
0.80203
0.784678
0.76759
0.750611
0.733686
0.717148
0.701248
0.685627
0.670236
0.655216
0.640672
0.626696
0.613262
0.600335
0.587921
0.576041
0.564673
0.553806
0.543426
0.533518
0.524037
0.514985
0.506191
0.497907
0.489194
0.481796
0.470975
0.465564
0.436785
0.0275808
0.0540013
0.0754214
0.091688
0.105131
0.116708
0.126894
0.135988
0.144272
0.152306
0.160582
0.169529
0.179492
0.190705
0.20328
0.217199
0.232418
0.248921
0.266678
0.285672
0.305917
0.327435
0.350254
0.374366
0.399757
0.426385
0.45421
0.483161
0.51316
0.54407
0.575774
0.608149
0.641088
0.674473
0.708205
0.742175
0.776301
0.810495
0.844699
0.878849
0.912908
0.946829
0.980593
1.01417
1.04755
1.08073
1.11369
1.14644
1.17898
1.21132
1.24345
1.27538
1.30711
1.33864
1.36996
1.40108
1.43199
1.46269
1.49315
1.52338
1.55336
1.58307
1.6125
1.64163
1.67045
1.69893
1.72705
1.75482
1.7822
1.80911
1.83553
1.86144
1.88682
1.91165
1.93591
1.9596
1.9827
2.00522
2.02715
2.04851
2.0693
2.08955
2.10926
2.12847
2.14721
2.1655
2.18338
2.2009
2.21809
2.23505
2.2518
2.26837
2.28477
2.30104
2.3172
2.33327
2.34928
2.3652
2.38104
2.39674
2.41223
2.42739
2.44208
2.45619
2.46979
2.48408
2.49778
2.50962
2.52328
2.53466
2.54754
2.55771
2.5684
2.57813
2.58771
2.59445
2.59979
2.61238
2.61543
2.62407
2.6247
2.62627
2.62727
2.62759
2.62396
2.61839
2.61064
2.60064
2.58834
2.57357
2.55601
2.53563
2.51239
2.48629
2.45735
2.42561
2.39113
2.35415
2.31482
2.27334
2.22991
2.18478
2.1381
2.09014
2.04157
1.99222
1.94238
1.89267
1.84293
1.79339
1.74429
1.69589
1.64833
1.60175
1.55568
1.51025
1.46599
1.42323
1.38196
1.34188
1.30304
1.26565
1.22981
1.19543
1.16242
1.1308
1.1006
1.07176
1.04422
1.01798
0.992972
0.969138
0.946419
0.924712
0.904043
0.883951
0.865517
0.84512
0.831196
0.789834
0.0446062
0.0857237
0.11381
0.134698
0.152158
0.167594
0.181734
0.195076
0.208066
0.221143
0.234736
0.249236
0.26497
0.282172
0.300975
0.32142
0.343491
0.367142
0.392317
0.418966
0.447057
0.476569
0.507487
0.539787
0.573438
0.608393
0.644596
0.681964
0.720384
0.759724
0.799876
0.840725
0.882162
0.924077
0.966365
1.00893
1.05168
1.09452
1.13741
1.18028
1.22309
1.26579
1.30837
1.35079
1.39305
1.43513
1.47702
1.51873
1.56025
1.60157
1.64271
1.68365
1.7244
1.76495
1.80531
1.84546
1.8854
1.92512
1.96461
2.00386
2.04284
2.08153
2.11993
2.15799
2.1957
2.23301
2.26991
2.30636
2.34232
2.37776
2.41262
2.44689
2.48052
2.51349
2.54576
2.57731
2.60812
2.63816
2.66741
2.69587
2.72352
2.75037
2.77641
2.80166
2.82612
2.84981
2.87275
2.89496
2.91648
2.93736
2.95764
2.97733
2.99645
3.01503
3.03312
3.05072
3.06787
3.08458
3.10085
3.11667
3.13203
3.1469
3.16128
3.17519
3.18871
3.20202
3.2149
3.22738
3.2399
3.25157
3.26311
3.27367
3.2838
3.2932
3.30216
3.3098
3.31699
3.3248
3.3297
3.33351
3.33429
3.33381
3.33243
3.32919
3.32317
3.31461
3.30335
3.28922
3.27205
3.25167
3.22791
3.20069
3.16995
3.13568
3.09792
3.05672
3.01223
2.96461
2.91408
2.86086
2.80519
2.74732
2.6875
2.62605
2.56366
2.50088
2.43792
2.37499
2.31217
2.24969
2.18783
2.12684
2.06694
2.00827
1.9508
1.89465
1.84001
1.78707
1.73588
1.68599
1.63747
1.59069
1.54577
1.50259
1.461
1.4211
1.38294
1.34642
1.31151
1.2782
1.24642
1.21612
1.18723
1.15968
1.13345
1.10829
1.08485
1.06106
1.04405
1.00813
0.0598989
0.117289
0.151571
0.176644
0.197558
0.216171
0.233432
0.24997
0.266298
0.282876
0.300131
0.318448
0.338146
0.359457
0.382522
0.407394
0.434064
0.462482
0.492583
0.524308
0.557607
0.592442
0.628782
0.666588
0.705819
0.746413
0.788291
0.831348
0.875483
0.920596
0.966585
1.01334
1.06075
1.1087
1.1571
1.20585
1.25486
1.30405
1.35336
1.40273
1.45211
1.50147
1.55077
1.59999
1.64911
1.6981
1.74697
1.7957
1.84428
1.89271
1.94098
1.9891
2.03706
2.08485
2.13248
2.17993
2.22719
2.27426
2.32112
2.36775
2.41414
2.46026
2.50608
2.55157
2.5967
2.64143
2.68573
2.72955
2.77284
2.81556
2.85766
2.8991
2.93982
2.97978
3.01893
3.05724
3.09465
3.13112
3.16663
3.20113
3.23461
3.26703
3.29839
3.32868
3.35788
3.386
3.41304
3.43902
3.46396
3.48789
3.51085
3.53285
3.55393
3.5741
3.59342
3.6119
3.6296
3.64652
3.6627
3.67816
3.69291
3.70697
3.72037
3.73315
3.74538
3.75713
3.76837
3.77914
3.78946
3.79913
3.80827
3.81662
3.82433
3.83139
3.83774
3.84289
3.84726
3.8512
3.85278
3.85265
3.85098
3.84779
3.84282
3.83567
3.82592
3.81343
3.79799
3.7794
3.75746
3.73197
3.70279
3.6698
3.63294
3.59218
3.54755
3.49912
3.44703
3.39146
3.33263
3.27075
3.2061
3.13901
3.06991
2.99925
2.92762
2.85555
2.78333
2.71119
2.6393
2.56792
2.49732
2.42777
2.35949
2.29264
2.22731
2.16362
2.10171
2.04167
1.98358
1.92731
1.87287
1.82036
1.76987
1.72123
1.67416
1.62894
1.58565
1.54412
1.50436
1.46637
1.43009
1.39546
1.36243
1.33095
1.301
1.27246
1.24573
1.21982
1.19944
1.1676
0.0735169
0.147178
0.188155
0.217645
0.242068
0.263751
0.283871
0.303184
0.322268
0.341619
0.361677
0.382828
0.405392
0.42961
0.455638
0.483551
0.51336
0.545033
0.578516
0.613751
0.650684
0.689268
0.729457
0.771203
0.814449
0.859127
0.905158
0.952452
1.00092
1.05045
1.10094
1.1523
1.2044
1.25715
1.31045
1.3642
1.41832
1.47274
1.5274
1.58224
1.6372
1.69224
1.74733
1.80243
1.85752
1.91257
1.96757
2.0225
2.07735
2.13211
2.18679
2.24136
2.29583
2.35018
2.40442
2.45854
2.51251
2.56634
2.62001
2.67349
2.72677
2.77981
2.8326
2.88508
2.93723
2.98899
3.04032
3.09118
3.14149
3.19121
3.24028
3.28864
3.33621
3.38294
3.42875
3.4736
3.51741
3.56013
3.60169
3.64205
3.68116
3.71897
3.75545
3.79057
3.82431
3.85664
3.88757
3.91708
3.9452
3.97194
3.99733
4.02139
4.04415
4.06564
4.0859
4.10496
4.12288
4.13969
4.15542
4.17012
4.18382
4.19656
4.20838
4.21933
4.22947
4.23886
4.2475
4.2554
4.26259
4.26907
4.2748
4.2796
4.28353
4.28683
4.28933
4.2903
4.29002
4.28906
4.28645
4.28238
4.27668
4.26925
4.25985
4.24821
4.23401
4.21703
4.19704
4.17381
4.1471
4.11674
4.08253
4.04435
4.00211
3.95577
3.90535
3.85091
3.79257
3.7305
3.66491
3.59607
3.52433
3.45011
3.37389
3.29614
3.21741
3.13817
3.05878
2.97951
2.90061
2.82233
2.74498
2.6688
2.59402
2.52085
2.4494
2.3798
2.31218
2.24661
2.18315
2.12176
2.06245
2.00526
1.95022
1.89726
1.84627
1.7973
1.75036
1.7052
1.66186
1.62041
1.58075
1.54284
1.50668
1.47219
1.4394
1.40827
1.37906
1.35139
1.32818
1.29769
0.0853273
0.175109
0.222874
0.256873
0.284844
0.309561
0.332409
0.354259
0.375754
0.397422
0.419721
0.443047
0.467729
0.494026
0.522118
0.552111
0.58405
0.617933
0.653728
0.69139
0.730869
0.772112
0.815068
0.859678
0.905882
0.953607
1.00278
1.0533
1.10509
1.15806
1.21209
1.26709
1.32297
1.37962
1.43695
1.49487
1.55332
1.61221
1.67147
1.73105
1.79089
1.85095
1.91117
1.97152
2.03197
2.0925
2.15307
2.21367
2.27428
2.33489
2.39549
2.45607
2.51663
2.57716
2.63764
2.69807
2.75843
2.81873
2.87892
2.93901
2.99895
3.05873
3.1183
3.17763
3.23668
3.29538
3.35368
3.41153
3.46886
3.52559
3.58165
3.63696
3.69144
3.74501
3.79759
3.84908
3.89941
3.94849
3.99625
4.0426
4.08747
4.1308
4.17254
4.21263
4.25102
4.28768
4.32259
4.35573
4.38711
4.41672
4.44459
4.47073
4.49517
4.51795
4.53909
4.55866
4.57668
4.59321
4.60829
4.62198
4.63432
4.64535
4.65513
4.66371
4.67116
4.67756
4.68287
4.6871
4.69034
4.69275
4.69424
4.69442
4.6933
4.69148
4.68864
4.68449
4.67921
4.67279
4.66496
4.65565
4.64472
4.63204
4.61738
4.60052
4.58119
4.55915
4.53416
4.50598
4.47437
4.43912
4.40003
4.35695
4.30977
4.25842
4.2029
4.14325
4.07956
4.012
3.94082
3.86635
3.78898
3.70914
3.62731
3.54399
3.45966
3.37478
3.28974
3.20485
3.12038
3.03664
2.9539
2.87244
2.79249
2.71425
2.63788
2.56351
2.49125
2.42119
2.35337
2.2878
2.22448
2.16342
2.10462
2.04805
1.99364
1.9414
1.89132
1.84328
1.79724
1.75321
1.71096
1.67051
1.63189
1.59504
1.55999
1.52677
1.49557
1.46633
1.44083
1.41047
0.0955576
0.200643
0.254943
0.293364
0.324825
0.352503
0.377968
0.402189
0.425864
0.449551
0.473727
0.498797
0.525109
0.552938
0.582494
0.613918
0.647292
0.682649
0.719985
0.759275
0.800479
0.843549
0.88843
0.935063
0.983384
1.03332
1.0848
1.13773
1.19203
1.24762
1.30439
1.36227
1.42115
1.48094
1.54157
1.60296
1.66501
1.72767
1.79087
1.85453
1.91861
1.98305
2.04781
2.11283
2.17808
2.24354
2.30916
2.37494
2.44084
2.50685
2.57297
2.63917
2.70544
2.77179
2.83819
2.90465
2.97114
3.03766
3.10418
3.17068
3.23714
3.30352
3.36979
3.4359
3.50179
3.56742
3.63272
3.6976
3.76201
3.82584
3.88902
3.95144
4.013
4.07361
4.13316
4.19153
4.24863
4.30434
4.35855
4.41118
4.46211
4.51126
4.55855
4.6039
4.64724
4.68852
4.72769
4.76473
4.7996
4.83232
4.86288
4.89129
4.91758
4.94177
4.96389
4.98401
5.00215
5.01838
5.03274
5.04529
5.05608
5.06517
5.07262
5.07846
5.0828
5.08581
5.0873
5.08727
5.08579
5.08323
5.07942
5.07419
5.0677
5.06004
5.05116
5.04098
5.02955
5.01682
5.00271
4.98712
4.96995
4.95105
4.93027
4.90739
4.8822
4.85446
4.82395
4.79041
4.7536
4.71331
4.66931
4.62144
4.56955
4.51356
4.45341
4.38914
4.32084
4.2487
4.17298
4.09403
4.01223
3.92801
3.84185
3.75419
3.66552
3.57628
3.48684
3.39757
3.30877
3.22074
3.13378
3.04815
2.9641
2.88184
2.80153
2.72333
2.64733
2.57362
2.50226
2.43326
2.36664
2.30238
2.24049
2.18092
2.12364
2.06862
2.01586
1.96529
1.91686
1.87054
1.82619
1.78379
1.74328
1.70455
1.66771
1.6328
1.59997
1.56933
1.54193
1.5112
0.10553
0.223556
0.283785
0.326327
0.361084
0.391574
0.419518
0.445964
0.471653
0.497166
0.522992
0.549548
0.57719
0.606216
0.636858
0.66929
0.703629
0.739941
0.778255
0.818567
0.860856
0.905081
0.951195
0.999142
1.04886
1.10028
1.15333
1.20793
1.26401
1.32148
1.38026
1.44027
1.50143
1.56366
1.62687
1.691
1.75596
1.8217
1.88814
1.95521
2.02287
2.09105
2.1597
2.22878
2.29825
2.36807
2.4382
2.50863
2.57932
2.65026
2.72143
2.79282
2.86442
2.93621
3.0082
3.08036
3.15269
3.22516
3.29778
3.3705
3.4433
3.51614
3.589
3.66181
3.73451
3.80705
3.87935
3.95133
4.02289
4.09394
4.16437
4.23407
4.30292
4.37079
4.43756
4.50309
4.56725
4.6299
4.69092
4.75016
4.80752
4.86286
4.91608
4.96708
5.01575
5.06203
5.10584
5.14713
5.18586
5.22202
5.25559
5.28657
5.31497
5.34081
5.36414
5.38498
5.40339
5.41941
5.43311
5.44454
5.45376
5.46082
5.46584
5.46875
5.46965
5.46868
5.46591
5.46131
5.45498
5.44705
5.43749
5.42632
5.41361
5.39942
5.38379
5.36671
5.34822
5.32832
5.30698
5.28414
5.25974
5.2337
5.20588
5.17613
5.14426
5.11009
5.0734
5.03395
4.99152
4.94587
4.89678
4.84405
4.78753
4.72709
4.66268
4.59433
4.52212
4.44624
4.36695
4.28455
4.19941
4.11194
4.02257
3.93174
3.83989
3.74743
3.65478
3.56228
3.47028
3.37907
3.28895
3.20019
3.11304
3.02772
2.9444
2.86322
2.78431
2.70775
2.63359
2.56186
2.49258
2.42575
2.36134
2.29934
2.2397
2.18239
2.12739
2.07468
2.02421
1.97592
1.92973
1.88558
1.84344
1.80325
1.76501
1.72873
1.69458
1.66269
1.63368
1.60236
0.116894
0.243841
0.30909
0.355234
0.392944
0.426002
0.456239
0.484758
0.512324
0.53953
0.566869
0.594761
0.62357
0.653601
0.685106
0.718283
0.753278
0.790186
0.829065
0.869937
0.912799
0.957629
1.00439
1.05304
1.10351
1.15575
1.2097
1.26529
1.32245
1.3811
1.44118
1.50262
1.56534
1.62927
1.69434
1.76048
1.82763
1.89572
1.96469
2.03447
2.10501
2.17624
2.24813
2.32061
2.39365
2.46721
2.54126
2.61576
2.69068
2.76602
2.84174
2.91784
2.99431
3.07113
3.14829
3.22579
3.30361
3.38174
3.46016
3.53885
3.61777
3.6969
3.77619
3.85557
3.935
4.0144
4.09369
4.17277
4.25154
4.32989
4.40769
4.48482
4.56113
4.63647
4.7107
4.78366
4.85517
4.92509
4.99325
5.05948
5.12364
5.18557
5.24513
5.30218
5.35661
5.40831
5.45718
5.50314
5.54614
5.58613
5.62309
5.65699
5.68785
5.71567
5.74048
5.76231
5.78121
5.79723
5.81044
5.82088
5.82863
5.83368
5.83607
5.836
5.83348
5.82863
5.82148
5.8121
5.80055
5.78694
5.7713
5.7537
5.73422
5.71293
5.68991
5.66521
5.63889
5.61099
5.58154
5.55054
5.51799
5.48385
5.44806
5.41052
5.3711
5.32966
5.28602
5.23999
5.19134
5.13987
5.08535
5.02757
4.96637
4.90163
4.83328
4.76134
4.68586
4.60702
4.525
4.4401
4.35263
4.26297
4.17148
4.07859
3.98467
3.89015
3.7954
3.70081
3.60672
3.51341
3.4212
3.33033
3.24106
3.15362
3.06819
2.98491
2.90391
2.82526
2.74904
2.67527
2.60399
2.53518
2.46883
2.40493
2.34344
2.28432
2.22754
2.1731
2.12094
2.07102
2.02327
1.97764
1.93409
1.89259
1.85315
1.81579
1.78056
1.74759
1.71722
1.68523
0.127046
0.260888
0.330371
0.379598
0.419885
0.455228
0.487542
0.517966
0.547276
0.576066
0.604824
0.633965
0.663847
0.694781
0.727024
0.760789
0.796241
0.833499
0.872645
0.913724
0.956758
1.00174
1.04865
1.09746
1.14813
1.2006
1.25483
1.31076
1.36834
1.4275
1.48819
1.55035
1.61391
1.67883
1.74503
1.81246
1.88106
1.95076
2.02152
2.09327
2.16596
2.23953
2.31394
2.38913
2.46507
2.54171
2.61903
2.69698
2.77554
2.85469
2.93441
3.01469
3.09551
3.17688
3.25877
3.34118
3.4241
3.50751
3.59141
3.67575
3.76053
3.84569
3.93119
4.01698
4.10299
4.18914
4.27534
4.36148
4.44745
4.53313
4.61837
4.70302
4.78692
4.86991
4.9518
5.0324
5.11154
5.189
5.26461
5.33817
5.40949
5.47837
5.54466
5.60818
5.66877
5.7263
5.78065
5.8317
5.87938
5.92361
5.96435
6.00157
6.03525
6.06539
6.09201
6.11515
6.13483
6.15111
6.16405
6.17373
6.1801
6.18323
6.18331
6.18039
6.17451
6.16576
6.15422
6.13995
6.12304
6.10356
6.08161
6.05726
6.03062
6.00179
5.97086
5.93794
5.90312
5.8665
5.82816
5.78815
5.74655
5.70339
5.65868
5.6124
5.56448
5.51486
5.46342
5.41001
5.35447
5.29661
5.23621
5.17311
5.10714
5.03818
4.96615
4.89102
4.81284
4.73169
4.64775
4.56122
4.47238
4.38153
4.28899
4.19512
4.10026
4.00479
3.90908
3.81354
3.71847
3.62418
3.53094
3.439
3.34861
3.26002
3.1734
3.0889
3.00664
2.92671
2.84917
2.77408
2.70145
2.63129
2.5636
2.49834
2.4355
2.37505
2.31696
2.2612
2.20774
2.15654
2.10755
2.06072
2.01601
1.97342
1.93294
1.89462
1.8585
1.82463
1.79312
1.76048
0.135565
0.27443
0.34734
0.399122
0.441589
0.478908
0.513057
0.545194
0.576099
0.606358
0.636447
0.666766
0.697662
0.729435
0.762342
0.7966
0.832382
0.869823
0.909022
0.950048
0.992938
1.03771
1.08436
1.13288
1.18325
1.23542
1.28937
1.34506
1.40244
1.46148
1.52212
1.58433
1.64806
1.71325
1.77987
1.84786
1.91717
1.98776
2.05957
2.13256
2.20666
2.28185
2.35806
2.43525
2.51339
2.59243
2.67234
2.75309
2.83466
2.91702
3.00015
3.08404
3.16868
3.25406
3.34018
3.42703
3.5146
3.60288
3.69186
3.78151
3.8718
3.96269
4.05414
4.14609
4.23846
4.33118
4.42414
4.51724
4.61033
4.70329
4.79596
4.88816
4.97972
5.07044
5.16011
5.24853
5.33546
5.4207
5.50401
5.58515
5.66392
5.74008
5.81342
5.88375
5.95087
6.01461
6.07481
6.13133
6.18407
6.23292
6.27782
6.31871
6.35557
6.38838
6.41714
6.44189
6.46265
6.47947
6.49241
6.50153
6.50674
6.50832
6.50626
6.50064
6.49152
6.47898
6.46311
6.44397
6.42165
6.39624
6.36784
6.33654
6.30248
6.26576
6.22653
6.18492
6.14106
6.09509
6.04715
5.99738
5.94591
5.89285
5.83831
5.78234
5.72498
5.66625
5.6061
5.54446
5.48126
5.4164
5.34966
5.2809
5.20999
5.13682
5.06127
4.98328
4.90285
4.82001
4.73485
4.64753
4.55822
4.46716
4.37462
4.28086
4.18619
4.09092
3.99538
3.90003
3.80515
3.711
3.61783
3.52588
3.43541
3.34665
3.25981
3.17501
3.09237
3.01198
2.93391
2.85822
2.78495
2.7141
2.64566
2.57963
2.51598
2.4547
2.39576
2.33913
2.28478
2.23267
2.18277
2.13505
2.08946
2.04602
2.00472
1.96559
1.92868
1.89405
1.86159
1.82839
0.142336
0.284416
0.35993
0.413721
0.457946
0.496902
0.532609
0.566234
0.598556
0.630144
0.661454
0.692867
0.724709
0.757264
0.790778
0.825461
0.861486
0.898995
0.938099
0.978878
1.02139
1.06567
1.11174
1.15961
1.20926
1.26069
1.31388
1.3688
1.42545
1.48379
1.54379
1.60544
1.66869
1.73351
1.79987
1.86773
1.93707
2.00783
2.07999
2.1535
2.22832
2.3044
2.38172
2.46022
2.53987
2.62064
2.70249
2.7854
2.86934
2.95429
3.04024
3.12716
3.21505
3.3039
3.39372
3.48451
3.57626
3.66896
3.76258
3.85712
3.95253
4.0488
4.14586
4.24366
4.34212
4.44115
4.54065
4.6405
4.74055
4.84066
4.94065
5.04033
5.13951
5.23795
5.33543
5.43171
5.52654
5.61966
5.71081
5.79971
5.88612
5.96978
6.05042
6.12781
6.20173
6.27196
6.3383
6.4006
6.4587
6.51248
6.56185
6.60672
6.64706
6.68283
6.71403
6.74067
6.76278
6.78039
6.79356
6.80233
6.80675
6.80695
6.80296
6.79483
6.78263
6.76644
6.74633
6.72238
6.69469
6.66333
6.62842
6.59007
6.54841
6.50359
6.45577
6.40509
6.35174
6.29591
6.2378
6.1776
6.11552
6.05177
5.98654
5.91999
5.85225
5.7835
5.71375
5.64304
5.57134
5.49839
5.42434
5.34918
5.27284
5.19519
5.11612
5.03551
4.95328
4.86938
4.78382
4.69665
4.60796
4.51788
4.42659
4.33426
4.24113
4.14743
4.05339
3.95944
3.86593
3.77308
3.68112
3.59028
3.50076
3.41289
3.32682
3.24268
3.16057
3.08058
3.0028
2.9273
2.85411
2.78325
2.71472
2.64851
2.58462
2.52304
2.46374
2.40669
2.35187
2.29926
2.24882
2.20054
2.15438
2.11035
2.06845
2.02872
1.99119
1.95589
1.92265
1.88902
0.14732
0.290901
0.368204
0.423449
0.468997
0.509226
0.546183
0.581038
0.614557
0.647294
0.67968
0.71207
0.744766
0.778028
0.812085
0.84713
0.88333
0.920825
0.959728
1.00013
1.0421
1.08569
1.13094
1.17787
1.2265
1.27684
1.32888
1.38263
1.43809
1.49525
1.55413
1.61472
1.67695
1.74081
1.8063
1.87343
1.94215
2.01246
2.08433
2.15772
2.2326
2.30894
2.38671
2.46587
2.5464
2.62827
2.71145
2.79591
2.88163
2.96859
3.05678
3.14618
3.23676
3.32851
3.4215
3.51573
3.61116
3.7078
3.80561
3.90458
4.00469
4.10591
4.20818
4.31145
4.41563
4.52064
4.62636
4.73267
4.83942
4.94643
5.05352
5.16049
5.26711
5.37314
5.47833
5.58239
5.68506
5.78604
5.88503
5.98173
6.07584
6.16706
6.25511
6.33969
6.42055
6.49743
6.5701
6.63835
6.70201
6.76092
6.81497
6.86403
6.90806
6.947
6.98084
7.00957
7.03322
7.05183
7.06542
7.07408
7.07784
7.07688
7.07114
7.06066
7.04553
7.02581
7.00158
6.9729
6.93986
6.90257
6.86112
6.81564
6.76627
6.71318
6.65652
6.5965
6.53331
6.4672
6.3984
6.32721
6.25388
6.17872
6.10205
6.02411
5.94512
5.86495
5.78405
5.70276
5.62136
5.54018
5.45926
5.3782
5.29691
5.21528
5.13315
5.05037
4.9668
4.88231
4.79684
4.71034
4.62281
4.5343
4.44489
4.35468
4.26382
4.17248
4.08091
3.98975
3.89902
3.80887
3.71949
3.63106
3.54376
3.45788
3.37363
3.29114
3.21051
3.13183
3.05518
2.98068
2.90835
2.8382
2.77026
2.70451
2.64097
2.57964
2.5205
2.46352
2.40869
2.35599
2.3054
2.25691
2.21051
2.16618
2.12395
2.08384
2.04587
2.01007
1.97622
1.9423
0.150566
0.294063
0.37235
0.428469
0.474884
0.516004
0.55388
0.589674
0.624139
0.657807
0.691083
0.724296
0.757719
0.791588
0.826104
0.861444
0.897758
0.935178
0.973812
1.01376
1.05508
1.09786
1.14214
1.18797
1.23539
1.28444
1.33508
1.38734
1.44126
1.49688
1.55424
1.61341
1.67425
1.73679
1.80104
1.86701
1.93468
2.00406
2.07513
2.14787
2.22227
2.29831
2.37596
2.45521
2.53603
2.6184
2.7023
2.78771
2.87461
2.963
3.05285
3.14415
3.2369
3.33108
3.42678
3.52397
3.62262
3.72272
3.82424
3.92714
4.03146
4.13717
4.24419
4.35247
4.46192
4.57246
4.68397
4.79632
4.90935
5.02287
5.1367
5.2506
5.36434
5.47765
5.59025
5.70185
5.81212
5.92075
6.0274
6.13174
6.23343
6.33213
6.4275
6.51922
6.60699
6.69051
6.76952
6.84376
6.91302
6.97711
7.03589
7.08922
7.13701
7.1792
7.21576
7.24668
7.27196
7.29164
7.30576
7.31439
7.31756
7.31558
7.30821
7.29549
7.27751
7.25433
7.22602
7.19263
7.15427
7.11101
7.06296
7.01027
6.95306
6.89153
6.82584
6.75622
6.68289
6.60612
6.52623
6.44357
6.35848
6.27123
6.1818
6.09098
5.99935
5.90777
5.81657
5.72567
5.63548
5.54645
5.45782
5.37002
5.28311
5.19702
5.11161
5.02667
4.942
4.85739
4.77268
4.6877
4.60235
4.51653
4.43022
4.34342
4.25617
4.16854
4.08056
3.99288
3.90555
3.81875
3.73263
3.64731
3.5629
3.48017
3.39895
3.31927
3.24123
3.16491
3.09032
3.01766
2.94699
2.87832
2.81166
2.74703
2.68448
2.62399
2.56555
2.50916
2.45479
2.40245
2.35212
2.30381
2.2575
2.21319
2.17091
2.13067
2.09248
2.05636
2.02208
1.98807
0.151975
0.293792
0.372306
0.428826
0.475735
0.5174
0.555871
0.592305
0.627441
0.661793
0.695746
0.7296
0.763601
0.797954
0.832837
0.8684
0.904777
0.942082
0.980417
1.01987
1.06052
1.10245
1.1457
1.19035
1.23647
1.28415
1.33335
1.38412
1.43648
1.49047
1.54611
1.60338
1.66235
1.72308
1.7856
1.84993
1.91609
1.98409
2.05393
2.12562
2.19914
2.2745
2.35167
2.43065
2.51143
2.59398
2.67829
2.76435
2.85214
2.94164
3.03286
3.12577
3.22036
3.31661
3.41453
3.51415
3.61547
3.71849
3.82318
3.92953
4.03758
4.14726
4.2585
4.37122
4.48538
4.60087
4.71759
4.8354
4.95412
5.07358
5.19357
5.31385
5.43415
5.55421
5.67371
5.79233
5.90974
6.02557
6.13947
6.25105
6.35995
6.46577
6.56816
6.66673
6.76116
6.85108
6.93621
7.01625
7.09095
7.16009
7.22347
7.28095
7.3324
7.37774
7.41694
7.44995
7.47679
7.49748
7.51206
7.52061
7.52307
7.52013
7.5111
7.49613
7.47527
7.44859
7.41613
7.37797
7.33418
7.28485
7.2301
7.17004
7.10483
7.03467
6.95976
6.8803
6.79659
6.70885
6.61711
6.52198
6.42402
6.3238
6.2225
6.12008
6.0172
5.91474
5.81213
5.71032
5.60986
5.51117
5.41432
5.31953
5.22691
5.13641
5.04788
4.96109
4.87578
4.79165
4.70841
4.62579
4.54354
4.46143
4.37932
4.29707
4.21464
4.132
4.04924
3.9666
3.88421
3.80223
3.72078
3.63997
3.55988
3.48098
3.40336
3.32708
3.25224
3.1789
3.10714
3.03726
2.96916
2.90283
2.83828
2.7755
2.71457
2.65553
2.59838
2.54309
2.48968
2.43816
2.38854
2.3408
2.29495
2.251
2.20896
2.16887
2.1307
2.09446
2.06001
2.02611
0.151984
0.291199
0.369261
0.425651
0.472508
0.514223
0.552838
0.589501
0.624934
0.659632
0.693958
0.72819
0.762547
0.79721
0.83233
0.868037
0.904443
0.941646
0.979737
1.01879
1.05889
1.1001
1.14249
1.18611
1.23102
1.27724
1.32477
1.37374
1.42423
1.4763
1.53001
1.58544
1.64262
1.70158
1.76238
1.82507
1.88966
1.95621
2.02472
2.09522
2.16771
2.24221
2.31871
2.39721
2.47771
2.5602
2.64467
2.7311
2.81948
2.90981
3.00206
3.09624
3.19233
3.29033
3.39024
3.49208
3.59586
3.70154
3.80912
3.91856
4.02983
4.14292
4.25779
4.37438
4.49264
4.61244
4.73369
4.85625
4.97997
5.10465
5.23007
5.35598
5.48213
5.60822
5.73392
5.85889
5.98277
6.10517
6.2257
6.34395
6.4595
6.57193
6.68083
6.7858
6.88643
6.98236
7.07322
7.1587
7.23849
7.31233
7.38001
7.44133
7.49615
7.54436
7.5859
7.62072
7.64883
7.67024
7.68497
7.6931
7.69469
7.6905
7.67957
7.66206
7.63803
7.60753
7.5706
7.52732
7.47775
7.42198
7.36012
7.29229
7.21862
7.13917
7.05416
6.9639
6.86875
6.76913
6.6659
6.55916
6.44954
6.33797
6.22401
6.10874
5.993
5.87754
5.76284
5.64963
5.5386
5.43031
5.3251
5.22329
5.12505
5.03035
4.93907
4.85094
4.76562
4.68272
4.60185
4.52258
4.44451
4.36727
4.29057
4.21414
4.13781
4.06147
3.98513
3.90885
3.83273
3.75687
3.68138
3.60635
3.53192
3.4583
3.38564
3.31404
3.24358
3.17434
3.10632
3.03982
2.97483
2.91138
2.84948
2.78914
2.73056
2.67367
2.61845
2.56489
2.51298
2.46278
2.41429
2.36754
2.32253
2.27928
2.2378
2.19812
2.16022
2.12415
2.08978
2.05621
0.150549
0.285253
0.362108
0.417869
0.464343
0.505832
0.544364
0.581066
0.616638
0.651556
0.686157
0.720695
0.755363
0.790314
0.825672
0.861542
0.898012
0.935162
0.973065
1.01179
1.05141
1.09198
1.13358
1.17627
1.22012
1.26522
1.31162
1.3594
1.40862
1.45936
1.5117
1.56572
1.62149
1.67907
1.73853
1.79991
1.86328
1.92868
1.99615
2.06572
2.13742
2.21127
2.28728
2.36545
2.4458
2.52831
2.61298
2.69979
2.78874
2.87981
2.97299
3.06826
3.16561
3.26504
3.36654
3.47011
3.57574
3.68342
3.79313
3.90485
4.01856
4.13423
4.25184
4.3713
4.49253
4.61544
4.73996
4.86595
4.99327
5.12172
5.25111
5.38118
5.51166
5.64227
5.77267
5.9025
6.03139
6.15893
6.28469
6.40824
6.52913
6.64691
6.76112
6.8713
6.97704
7.0779
7.17349
7.26344
7.34742
7.42513
7.4963
7.56071
7.61819
7.66859
7.71184
7.74788
7.77668
7.79825
7.81261
7.8198
7.82022
7.81438
7.80115
7.78074
7.75318
7.71852
7.67677
7.62797
7.57217
7.50948
7.43998
7.36381
7.28118
7.1925
7.09791
6.99764
6.89213
6.78207
6.66717
6.54828
6.42607
6.30126
6.17436
6.04622
5.91772
5.78979
5.66324
5.53894
5.41771
5.30029
5.18723
5.07896
4.97572
4.87754
4.78429
4.69567
4.61127
4.5306
4.45313
4.37829