/*--------------------------------*- C++ -*----------------------------------*\
| =========                 |                                                 |
| \\      /  F ield         | OpenFOAM: The Open Source CFD Toolbox           |
|  \\    /   O peration     | Version:  v2006                                 |
|   \\  /    A nd           | Website:  www.openfoam.com                      |
|    \\/     M anipulation  |                                                 |
\*---------------------------------------------------------------------------*/
FoamFile
{
    version     2.0;
    format      ascii;
    class       volScalarField;
    location    "100";
    object      nut;
}
// * * * * * * * * * * * * * * * * * * * * * * * * * * * * * * * * * * * * * //

dimensions      [0 2 -1 0 0 0 0];


internalField   nonuniform List<scalar> 
12225
(
2.70739e-05
3.55749e-05
4.05232e-05
4.3193e-05
4.44521e-05
4.49659e-05
4.49131e-05
4.48748e-05
4.45067e-05
4.41902e-05
4.3858e-05
4.35322e-05
4.32376e-05
4.29593e-05
4.27271e-05
4.24957e-05
4.23373e-05
4.21213e-05
0.000213068
8.46254e-05
5.59043e-05
4.40695e-05
3.83665e-05
3.53677e-05
3.38375e-05
3.30916e-05
3.2844e-05
3.28826e-05
3.32067e-05
3.36068e-05
3.42228e-05
3.47959e-05
3.55814e-05
3.62155e-05
3.71368e-05
3.76297e-05
0.000657683
0.000306297
0.000194167
0.000142041
0.000113268
9.4516e-05
8.20495e-05
7.33443e-05
6.68263e-05
6.19974e-05
5.80748e-05
5.51533e-05
5.25774e-05
5.07633e-05
4.89524e-05
4.79168e-05
4.6424e-05
4.54845e-05
0.000863446
0.000609382
0.000451856
0.000350684
0.000289435
0.000246496
0.000216752
0.000194344
0.000177829
0.000164374
0.000154123
0.000145181
0.000138296
0.000131879
0.000127019
0.000122104
0.000118389
0.00011406
0.000877547
0.000776458
0.000691096
0.00059178
0.000517462
0.000458103
0.000413566
0.000377309
0.000349761
0.000326095
0.000308013
0.000291481
0.000279072
0.000266831
0.000258082
0.000248615
0.000242015
0.00023441
0.000858437
0.000835318
0.000807383
0.000753039
0.000699483
0.000648283
0.000604908
0.000565954
0.000534298
0.0005055
0.000482624
0.000460914
0.000444269
0.000427333
0.000415217
0.000401527
0.000392601
0.00038098
0.000854263
0.000849551
0.000840726
0.000823059
0.000798634
0.000768496
0.00073923
0.000709624
0.000683435
0.000657837
0.000636328
0.000614961
0.000597883
0.000580015
0.000566779
0.000551554
0.000541544
0.000527599
0.000852391
0.000851592
0.000849794
0.000844536
0.000835953
0.000824541
0.000810206
0.000793508
0.000777295
0.000760089
0.000744649
0.000728407
0.000714705
0.000699942
0.000688365
0.000675029
0.000665679
0.000652729
0.000851903
0.00085148
0.000851079
0.000849884
0.000847548
0.000843624
0.000838606
0.000831293
0.000823675
0.000815032
0.000806352
0.000796622
0.000787884
0.000778184
0.000769973
0.000760686
0.000753237
0.000744039
0.000851815
0.000851373
0.000851074
0.00085061
0.000850036
0.000848812
0.000847337
0.000844867
0.000842012
0.000838325
0.000834531
0.000829901
0.000825472
0.000820336
0.000815647
0.000810377
0.000805677
0.000799896
0.000851799
0.000851356
0.000851021
0.000850624
0.000850326
0.000849826
0.000849341
0.000848523
0.000847612
0.000846271
0.000844888
0.000843028
0.000841226
0.000838915
0.000836859
0.000834155
0.000832104
0.000828921
0.000851792
0.000851359
0.000851001
0.000850611
0.000850307
0.000849939
0.000849633
0.000849214
0.00084882
0.000848241
0.000847685
0.000846887
0.000846153
0.000845111
0.000844236
0.000842944
0.000842009
0.000840465
0.000851787
0.000851362
0.000850989
0.000850608
0.000850281
0.000849937
0.000849647
0.000849322
0.000849044
0.000848703
0.000848405
0.000848009
0.000847669
0.000847192
0.0008468
0.000846228
0.000845791
0.000845123
0.000851783
0.000851364
0.00085098
0.000850605
0.000850264
0.000849926
0.000849623
0.000849318
0.000849046
0.000848763
0.000848512
0.000848239
0.000847998
0.000847723
0.000847482
0.000847197
0.000846948
0.000846648
0.000851781
0.000851364
0.000850974
0.0008506
0.000850252
0.000849916
0.000849604
0.000849302
0.000849021
0.000848747
0.000848493
0.000848243
0.00084801
0.000847779
0.000847563
0.000847347
0.000847144
0.00084694
0.00085178
0.000851363
0.00085097
0.000850596
0.000850243
0.000849907
0.000849589
0.000849287
0.000849
0.000848726
0.000848466
0.000848217
0.00084798
0.000847752
0.000847536
0.000847327
0.000847128
0.000846936
0.000851779
0.000851362
0.000850967
0.000850592
0.000850237
0.000849899
0.000849579
0.000849274
0.000848985
0.000848708
0.000848445
0.000848194
0.000847954
0.000847724
0.000847504
0.000847294
0.000847092
0.000846899
0.000851779
0.000851362
0.000850965
0.00085059
0.000850233
0.000849894
0.000849572
0.000849266
0.000848974
0.000848696
0.00084843
0.000848177
0.000847935
0.000847703
0.000847481
0.000847269
0.000847066
0.000846871
0.000851779
0.000851362
0.000850965
0.000850589
0.000850232
0.000849892
0.000849569
0.000849262
0.000848969
0.00084869
0.000848423
0.000848169
0.000847925
0.000847692
0.000847469
0.000847256
0.000847051
0.000846856
0.000851779
0.000851363
0.000850966
0.000850591
0.000850234
0.000849895
0.000849572
0.000849265
0.000848972
0.000848694
0.000848427
0.000848172
0.000847927
0.000847694
0.00084747
0.000847255
0.000847048
0.000846851
0.000851779
0.000851364
0.000850968
0.000850595
0.000850238
0.000849901
0.000849578
0.000849273
0.000848977
0.000848698
0.000848424
0.000848165
0.000847907
0.000847663
0.000847416
0.000847183
0.000846942
0.000846718
0.000851778
0.000851368
0.000850969
0.000850603
0.000850243
0.00084991
0.000849572
0.000849253
0.000848914
0.000848585
0.00084822
0.000847861
0.000847452
0.000847054
0.000846589
0.000846153
0.000845629
0.000845162
0.000851779
0.000851381
0.000850972
0.000850624
0.000850209
0.000849788
0.000849232
0.000848613
0.0008478
0.000846891
0.000845763
0.000844551
0.000843115
0.000841651
0.000839944
0.000838314
0.000836369
0.000834683
0.000851856
0.000851467
0.000850932
0.000850394
0.000849126
0.000847455
0.000844944
0.000841932
0.000838065
0.000833832
0.000828945
0.000823901
0.000818427
0.00081296
0.000807242
0.000801665
0.000795878
0.000790795
0.000852785
0.000851379
0.000849189
0.000845092
0.00083688
0.000827809
0.000815737
0.000802802
0.000788346
0.00077433
0.000759616
0.000746018
0.000732051
0.000719606
0.000706734
0.000695749
0.000683993
0.000674601
0.000858212
0.000842298
0.000828961
0.000803005
0.000769247
0.00073545
0.000700771
0.000669657
0.00063944
0.000613521
0.00058853
0.000567649
0.000547212
0.000530545
0.000513748
0.000500486
0.000486443
0.000475942
0.000864341
0.000785611
0.000712708
0.000628284
0.000558257
0.000503051
0.000455703
0.000418808
0.000386559
0.000361516
0.000338682
0.000321136
0.000304321
0.000291669
0.000278811
0.000269443
0.000259268
0.000252201
0.000775968
0.000540051
0.000397932
0.000312941
0.000258133
0.000219603
0.000190474
0.000169526
0.000152514
0.000139948
0.000129053
0.000120969
0.000113482
0.000108025
0.000102588
9.8761e-05
9.46422e-05
9.18673e-05
0.000323584
0.000164836
0.00011141
8.60702e-05
7.0819e-05
6.13492e-05
5.50117e-05
5.08807e-05
4.79477e-05
4.60054e-05
4.45863e-05
4.36843e-05
4.3036e-05
4.26916e-05
4.24522e-05
4.24361e-05
4.24324e-05
4.26188e-05
3.26575e-05
3.90517e-05
4.38921e-05
4.69712e-05
4.93653e-05
5.11689e-05
5.25333e-05
5.34572e-05
5.41117e-05
5.44591e-05
5.46864e-05
5.46906e-05
5.46468e-05
5.45411e-05
5.43669e-05
5.41581e-05
5.39317e-05
5.36935e-05
5.79137e-06
1.74111e-05
2.11843e-05
2.38966e-05
2.58796e-05
2.73606e-05
2.84804e-05
2.94156e-05
3.02719e-05
3.10203e-05
3.17397e-05
3.24894e-05
3.33255e-05
3.42938e-05
3.54594e-05
3.6808e-05
3.82454e-05
3.97456e-05
4.13128e-05
4.29434e-05
4.46446e-05
4.64151e-05
4.82687e-05
5.01874e-05
5.21556e-05
5.41609e-05
5.62015e-05
5.82507e-05
6.03042e-05
6.23477e-05
6.43748e-05
6.63738e-05
6.83421e-05
7.02704e-05
7.21583e-05
7.39993e-05
7.57953e-05
7.75418e-05
7.92429e-05
8.08953e-05
8.25035e-05
8.40655e-05
8.55861e-05
8.70638e-05
8.85033e-05
8.99035e-05
9.12689e-05
9.25985e-05
9.38979e-05
9.51661e-05
9.64066e-05
9.76189e-05
9.88058e-05
9.99666e-05
0.000101104
0.000102216
0.000103306
0.000104372
0.000105417
0.000106438
0.000107437
0.000108414
0.000109368
0.0001103
0.00011121
0.000112097
0.000112963
0.000113806
0.000114624
0.000115417
0.000116184
0.000116925
0.000117639
0.000118327
0.000118988
0.000119624
0.000120232
0.000120816
0.000121373
0.000121908
0.000122418
0.000122908
0.000123375
0.000123825
0.000124255
0.000124671
0.00012507
0.000125458
0.000125835
0.000126206
0.000126572
0.000126933
0.00012729
0.000127644
0.000127997
0.000128347
0.000128695
0.000129035
0.000129363
0.00012967
0.00012994
0.000130141
0.000130186
0.00012986
0.000128696
0.000130308
0.00013257
0.000129574
0.000132555
0.000129649
0.00013258
0.000130935
0.00013084
0.000131953
0.000133287
0.000131295
0.000132107
0.000133475
0.000132712
0.00013168
0.000132582
0.000132063
0.000132035
0.000131792
0.000131478
0.000131118
0.000130703
0.000130238
0.000129727
0.000129157
0.00012852
0.000127819
0.000127047
0.000126204
0.000125307
0.000124342
0.000123289
0.000122159
0.000120952
0.000119666
0.000118316
0.000116908
0.000115355
0.000113778
0.000112347
0.000109973
0.000107789
0.000106537
0.000105397
0.000104246
0.000103067
0.000101876
0.000100653
9.94539e-05
9.82677e-05
9.70232e-05
9.57459e-05
9.45492e-05
9.33634e-05
9.21578e-05
9.0948e-05
8.97443e-05
8.85657e-05
8.74179e-05
8.62943e-05
8.51936e-05
8.41221e-05
8.30804e-05
8.20674e-05
8.1084e-05
8.01301e-05
7.92045e-05
7.83056e-05
7.74277e-05
7.65763e-05
7.57077e-05
7.49262e-05
7.37806e-05
7.37888e-05
7.0571e-05
9.73079e-06
5.93485e-05
0.000121044
0.000168132
0.000200606
0.00022313
0.000238427
0.000247936
0.000252524
0.000254875
0.000256587
0.000258525
0.00026107
0.000264291
0.000268057
0.000272136
0.000276525
0.00028145
0.000287012
0.000293277
0.000300295
0.000308117
0.000316779
0.000326327
0.000336781
0.000348133
0.000360347
0.000373388
0.00038718
0.000401716
0.000416884
0.000432584
0.000448707
0.000465152
0.000481809
0.00049858
0.000515365
0.000532084
0.000548668
0.000565064
0.000581222
0.000597108
0.000612691
0.000627955
0.000642879
0.000657454
0.000671662
0.000685486
0.000698984
0.000712185
0.000725099
0.000737739
0.000750112
0.000762232
0.000774105
0.00078574
0.000797142
0.000808315
0.000819262
0.000829984
0.000840482
0.000850753
0.000860796
0.000870606
0.000880185
0.000889528
0.000898643
0.000907532
0.000916194
0.000924547
0.000932586
0.000940295
0.000947667
0.000954689
0.000961359
0.000967663
0.000973605
0.000979175
0.000984383
0.000989229
0.000993729
0.000997887
0.00100173
0.00100528
0.00100856
0.00101158
0.00101439
0.00101701
0.00101949
0.00102188
0.00102426
0.00102668
0.00102916
0.00103175
0.0010345
0.00103744
0.00104063
0.0010441
0.00104791
0.00105212
0.00105677
0.0010619
0.00106754
0.0010737
0.00108052
0.00108808
0.0010911
0.00109113
0.00109734
0.00109838
0.00110615
0.00111162
0.00112164
0.00112324
0.00113097
0.00112799
0.00113269
0.00114418
0.00114469
0.0011507
0.00115054
0.00115526
0.00115999
0.00116585
0.00116941
0.00117259
0.00117521
0.00117722
0.00117867
0.00117948
0.00117936
0.00117839
0.0011765
0.00117367
0.00116992
0.00116532
0.00115969
0.00115314
0.00114568
0.00113733
0.00112815
0.00111825
0.00110745
0.00109569
0.00108428
0.00107042
0.00105227
0.00103273
0.00101255
0.00099206
0.000971458
0.000950913
0.000930472
0.000910258
0.000890243
0.000870598
0.000851188
0.000832453
0.000814479
0.000796867
0.000779618
0.000762851
0.000746633
0.000730905
0.000715584
0.000700713
0.000686331
0.000672403
0.000658915
0.000645879
0.000633258
0.000621058
0.000609162
0.000597724
0.000586268
0.000575366
0.000564408
0.000549662
0.00053635
0.000481367
1.22877e-05
8.78701e-05
0.000184059
0.000264547
0.00032757
0.000375376
0.000411002
0.0004371
0.00045579
0.000469216
0.000479255
0.000487416
0.000494833
0.000502309
0.000510383
0.000519413
0.00052967
0.000541357
0.000554596
0.000569449
0.000585949
0.000604118
0.00062397
0.000645502
0.000668682
0.000693426
0.000719584
0.000747641
0.000777673
0.000808881
0.000840942
0.000873647
0.000906826
0.000940325
0.000973985
0.00100765
0.00104116
0.00107436
0.00110719
0.00113957
0.00117145
0.00120278
0.00123353
0.00126368
0.00129322
0.00132215
0.00135046
0.00137817
0.0014053
0.00143189
0.00145795
0.0014835
0.00150855
0.00153313
0.00155726
0.00158093
0.00160417
0.00162698
0.00164937
0.00167134
0.0016929
0.00171403
0.00173474
0.00175502
0.00177486
0.00179425
0.00181319
0.00183165
0.00184962
0.00186706
0.00188395
0.00190028
0.00191602
0.00193116
0.00194569
0.00195958
0.00197283
0.00198544
0.00199739
0.0020087
0.00201937
0.00202941
0.00203884
0.00204769
0.00205599
0.00206376
0.00207104
0.00207789
0.00208435
0.0020905
0.00209641
0.00210215
0.00210778
0.00211334
0.00211892
0.00212457
0.00213037
0.00213638
0.00214268
0.00214931
0.00215632
0.00216373
0.00217149
0.00217945
0.00218729
0.00219424
0.00219878
0.00220338
0.00221053
0.00221642
0.00222543
0.00223381
0.0022429
0.00224828
0.00225597
0.00225956
0.00226706
0.00227731
0.00228377
0.00228924
0.00229256
0.00229756
0.00230294
0.00230828
0.00231202
0.00231473
0.00231628
0.00231656
0.00231549
0.00231297
0.00230883
0.00230303
0.00229551
0.0022862
0.00227511
0.00226226
0.00224759
0.00223115
0.00221298
0.00219316
0.00217178
0.00214898
0.00212471
0.00209901
0.00207262
0.00204423
0.00201229
0.00197826
0.00194307
0.00190728
0.00187124
0.00183519
0.00179929
0.00176371
0.00172869
0.00169445
0.00166085
0.00162874
0.0015981
0.0015678
0.00153804
0.00150921
0.00148144
0.00145453
0.00142817
0.00140258
0.00137785
0.00135386
0.00133059
0.00130806
0.00128621
0.001265
0.00124429
0.0012242
0.00120415
0.00118471
0.0011648
0.00114234
0.0011245
0.00104803
1.41645e-05
0.000115187
0.000237622
0.000341367
0.000424835
0.00049045
0.000541269
0.00058015
0.000609662
0.000632146
0.000649716
0.000664227
0.000677257
0.000690078
0.000703664
0.000718716
0.000735706
0.000754926
0.000776532
0.000800588
0.000827105
0.000856062
0.000887417
0.000921113
0.000957083
0.000995258
0.0010356
0.00107751
0.00112044
0.00116446
0.00120935
0.00125487
0.00130084
0.00134717
0.0013937
0.00144033
0.001487
0.0015332
0.00157887
0.00162394
0.00166834
0.00171201
0.00175494
0.00179709
0.00183845
0.00187903
0.00191883
0.00195786
0.00199615
0.00203371
0.00207058
0.00210676
0.00214228
0.00217716
0.00221142
0.00224508
0.00227815
0.00231063
0.00234255
0.0023739
0.00240469
0.00243491
0.00246456
0.00249362
0.0025221
0.00254997
0.00257722
0.00260383
0.00262976
0.00265501
0.00267954
0.00270333
0.00272635
0.00274859
0.00277002
0.00279062
0.00281039
0.0028293
0.00284736
0.00286456
0.0028809
0.0028964
0.00291106
0.00292492
0.00293799
0.00295031
0.00296191
0.00297285
0.00298317
0.00299294
0.00300224
0.00301112
0.00301964
0.00302787
0.00303587
0.00304371
0.00305145
0.00305916
0.0030669
0.00307471
0.0030826
0.00309056
0.00309851
0.00310629
0.00311361
0.00312008
0.00312562
0.00313138
0.00313801
0.00314465
0.00315234
0.00315974
0.00316703
0.00317292
0.00317973
0.00318477
0.00319124
0.00320041
0.00320538
0.00320915
0.00321274
0.00321674
0.00322029
0.00322315
0.00322469
0.00322492
0.0032237
0.0032209
0.00321636
0.00320998
0.00320159
0.00319114
0.00317859
0.00316383
0.00314678
0.00312744
0.00310579
0.00308186
0.00305572
0.00302744
0.00299714
0.00296494
0.00293096
0.00289529
0.00285826
0.00281934
0.00277783
0.00273435
0.00268962
0.00264414
0.00259832
0.00255244
0.0025067
0.00246132
0.00241654
0.00237259
0.00232947
0.0022876
0.00224713
0.00220772
0.00217013
0.00213404
0.0020995
0.00206612
0.00203314
0.00200122
0.00197051
0.00194068
0.00191172
0.00188374
0.00185657
0.00183017
0.00180442
0.00177932
0.00175441
0.00173002
0.0017052
0.00167856
0.00165745
0.00158324
1.56367e-05
0.000137857
0.000283774
0.000407549
0.000508084
0.000588399
0.000651836
0.000701668
0.000740774
0.000771726
0.000796839
0.000818181
0.000837555
0.000856474
0.000876145
0.00089747
0.000921074
0.000947349
0.000976508
0.00100863
0.00104372
0.0010817
0.00112247
0.00116589
0.0012118
0.00125998
0.0013102
0.0013621
0.00141537
0.0014698
0.00152519
0.00158134
0.00163801
0.00169492
0.00175185
0.00180861
0.00186496
0.00192082
0.00197608
0.00203068
0.00208453
0.00213759
0.00218982
0.00224119
0.00229169
0.00234131
0.00239006
0.00243794
0.00248498
0.00253118
0.00257657
0.00262117
0.00266501
0.00270809
0.00275045
0.0027921
0.00283306
0.00287334
0.00291295
0.00295189
0.00299017
0.00302778
0.00306473
0.00310099
0.00313657
0.00317143
0.00320556
0.00323894
0.00327154
0.00330333
0.00333429
0.00336439
0.00339359
0.00342187
0.0034492
0.00347556
0.00350092
0.00352527
0.00354859
0.00357087
0.0035921
0.00361229
0.00363144
0.00364955
0.00366666
0.00368278
0.00369794
0.00371219
0.00372555
0.0037381
0.00374987
0.00376094
0.00377134
0.00378115
0.00379042
0.00379921
0.00380758
0.00381559
0.00382329
0.00383071
0.00383788
0.00384479
0.0038514
0.00385763
0.00386335
0.0038685
0.00387313
0.00387772
0.00388246
0.00388734
0.0038926
0.00389719
0.00390214
0.00390775
0.00391273
0.00391592
0.00391942
0.00392365
0.00392638
0.00392852
0.00393021
0.00393162
0.00393238
0.00393226
0.00393093
0.00392825
0.00392407
0.00391821
0.00391052
0.00390085
0.00388904
0.00387498
0.0038586
0.00383974
0.00381835
0.0037944
0.00376788
0.00373881
0.00370725
0.00367329
0.00363706
0.0035987
0.00355834
0.00351611
0.00347218
0.00342639
0.00337854
0.00332897
0.00327819
0.00322664
0.0031747
0.00312267
0.00307078
0.00301925
0.00296833
0.00291821
0.00286902
0.00282099
0.00277428
0.00272882
0.00268496
0.00264268
0.0026025
0.00256431
0.0025276
0.00249244
0.00245883
0.00242606
0.00239421
0.00236355
0.00233374
0.00230473
0.00227653
0.00224898
0.00222178
0.00219504
0.00216811
0.00214001
0.0021163
0.00205054
1.68052e-05
0.000157662
0.00032445
0.000466083
0.000581683
0.00067512
0.000749956
0.000809859
0.000857992
0.000897132
0.000929752
0.000958048
0.000983949
0.00100909
0.00103481
0.00106213
0.00109179
0.00112427
0.00115985
0.00119863
0.00124062
0.00128572
0.00133379
0.00138464
0.00143804
0.00149374
0.00155146
0.00161089
0.00167176
0.00173379
0.00179675
0.00186039
0.00192446
0.00198872
0.00205297
0.002117
0.00218066
0.00224381
0.00230635
0.00236819
0.00242926
0.0024895
0.00254888
0.00260736
0.00266492
0.00272157
0.00277728
0.00283208
0.00288598
0.00293898
0.00299111
0.00304239
0.00309284
0.00314248
0.00319134
0.00323942
0.00328675
0.00333334
0.00337921
0.00342435
0.00346877
0.00351247
0.00355545
0.00359769
0.00363918
0.0036799
0.00371983
0.00375894
0.0037972
0.00383459
0.00387106
0.00390658
0.00394111
0.00397463
0.00400709
0.00403846
0.0040687
0.0040978
0.00412571
0.00415242
0.00417791
0.00420216
0.00422517
0.00424694
0.00426747
0.00428677
0.00430486
0.00432176
0.00433751
0.00435214
0.00436569
0.00437822
0.00438976
0.00440037
0.0044101
0.00441901
0.00442715
0.00443458
0.00444135
0.00444749
0.00445303
0.00445799
0.00446237
0.00446616
0.00446935
0.004472
0.00447406
0.00447578
0.00447716
0.00447854
0.00448062
0.0044826
0.00448349
0.00448443
0.00448499
0.00448472
0.00448448
0.00448417
0.00448323
0.00448183
0.00448
0.00447773
0.00447483
0.0044711
0.00446633
0.00446036
0.00445301
0.00444411
0.00443348
0.00442096
0.00440637
0.00438958
0.00437045
0.00434886
0.00432471
0.00429795
0.00426855
0.00423652
0.0042019
0.0041648
0.00412531
0.00408357
0.00403972
0.00399389
0.00394622
0.00389673
0.00384548
0.00379271
0.00373881
0.00368414
0.00362904
0.0035738
0.00351866
0.00346385
0.00340958
0.00335607
0.00330346
0.00325194
0.00320164
0.00315263
0.00310509
0.00305909
0.00301488
0.00297252
0.00293244
0.00289452
0.00285869
0.00282456
0.00279192
0.00276071
0.00273023
0.00270047
0.0026716
0.00264323
0.00261529
0.0025878
0.00256034
0.00253227
0.00250711
0.0024506
1.77656e-05
0.000174875
0.000359834
0.000517382
0.000646629
0.000752174
0.000837706
0.00090721
0.000964077
0.00101125
0.00105132
0.00108655
0.00111894
0.00115019
0.0011817
0.00121457
0.00124962
0.0012874
0.00132826
0.00137234
0.00141967
0.00147015
0.00152364
0.00157991
0.00163874
0.00169984
0.00176293
0.00182773
0.00189395
0.00196131
0.00202957
0.00209846
0.00216776
0.00223724
0.0023067
0.00237597
0.00244489
0.00251332
0.00258117
0.00264833
0.00271474
0.00278034
0.00284508
0.00290894
0.00297187
0.00303389
0.00309497
0.00315512
0.00321436
0.00327269
0.00333013
0.0033867
0.00344242
0.00349731
0.0035514
0.00360469
0.00365721
0.00370898
0.00376
0.00381028
0.00385983
0.00390864
0.00395671
0.00400403
0.00405058
0.00409634
0.00414129
0.00418538
0.00422861
0.00427091
0.00431225
0.0043526
0.0043919
0.00443011
0.00446717
0.00450305
0.0045377
0.00457108
0.00460313
0.00463383
0.00466314
0.00469103
0.00471747
0.00474245
0.00476596
0.00478798
0.00480852
0.00482759
0.0048452
0.00486138
0.00487616
0.00488957
0.00490165
0.00491244
0.004922
0.00493036
0.0049376
0.00494375
0.00494887
0.004953
0.00495619
0.00495846
0.00495986
0.00496037
0.00496012
0.0049594
0.00495765
0.0049555
0.00495306
0.0049502
0.00494737
0.00494389
0.00493999
0.00493577
0.00493113
0.00492605
0.00492078
0.00491534
0.00490958
0.00490352
0.00489716
0.00489044
0.00488326
0.00487545
0.00486687
0.00485736
0.00484675
0.00483487
0.00482153
0.00480656
0.00478977
0.00477098
0.00475005
0.00472681
0.00470115
0.00467299
0.00464226
0.00460896
0.00457313
0.00453481
0.00449412
0.00445114
0.00440601
0.00435884
0.00430977
0.0042589
0.00420639
0.00415249
0.00409751
0.00404176
0.00398554
0.00392912
0.00387273
0.00381662
0.00376098
0.00370602
0.0036519
0.00359879
0.00354682
0.00349609
0.00344673
0.00339884
0.00335257
0.00330802
0.00326541
0.0032251
0.00318751
0.00315233
0.0031192
0.00308783
0.00305771
0.00302864
0.00300041
0.00297251
0.0029451
0.00291808
0.00289125
0.00286422
0.00283884
0.00279086
1.87934e-05
0.000188768
0.000389137
0.000560938
0.000702743
0.000819639
0.000915353
0.000994108
0.00105948
0.00111453
0.00116192
0.00120398
0.00124272
0.00127986
0.00131683
0.00135479
0.00139459
0.00143686
0.00148198
0.00153017
0.00158148
0.00163584
0.00169313
0.00175313
0.00181562
0.00188033
0.00194697
0.00201528
0.00208497
0.00215578
0.00222746
0.00229978
0.00237249
0.00244541
0.00251834
0.00259111
0.00266359
0.00273563
0.00280714
0.00287802
0.00294819
0.0030176
0.0030862
0.00315395
0.00322082
0.0032868
0.00335188
0.00341607
0.00347936
0.00354176
0.0036033
0.00366398
0.00372383
0.00378287
0.00384112
0.0038986
0.00395533
0.00401133
0.0040666
0.00412115
0.004175
0.00422813
0.00428055
0.00433223
0.00438317
0.00443334
0.00448271
0.00453125
0.00457891
0.00462565
0.00467142
0.00471618
0.00475986
0.0048024
0.00484375
0.00488384
0.00492261
0.00495999
0.00499594
0.0050304
0.0050633
0.0050946
0.00512425
0.00515223
0.00517848
0.005203
0.00522576
0.00524675
0.00526598
0.00528344
0.00529916
0.00531316
0.00532547
0.00533612
0.00534515
0.00535262
0.00535857
0.00536307
0.00536615
0.00536788
0.00536829
0.00536742
0.0053654
0.00536204
0.00535751
0.00535255
0.00534689
0.00534022
0.00533271
0.00532462
0.00531604
0.00530686
0.00529717
0.00528703
0.0052765
0.00526561
0.00525452
0.00524329
0.00523191
0.00522041
0.0052088
0.00519704
0.00518508
0.00517281
0.00516012
0.00514688
0.00513293
0.00511812
0.00510225
0.00508514
0.00506659
0.00504639
0.00502437
0.00500035
0.00497417
0.00494572
0.0049149
0.00488168
0.00484606
0.00480806
0.00476776
0.00472522
0.00468053
0.00463379
0.0045851
0.0045346
0.0044825
0.00442905
0.00437454
0.00431924
0.00426342
0.00420733
0.0041512
0.00409525
0.0040397
0.00398472
0.0039305
0.0038772
0.00382495
0.00377387
0.00372407
0.00367564
0.00362872
0.00358339
0.00353981
0.00349822
0.00345927
0.00342345
0.00339017
0.00335895
0.00332933
0.00330101
0.00327374
0.0032472
0.00322124
0.00319551
0.00317004
0.00314463
0.00311997
0.0030791
1.98171e-05
0.000197469
0.000410978
0.000595936
0.000749519
0.000877155
0.000982577
0.00107021
0.00114379
0.00120647
0.00126099
0.00130966
0.00135452
0.00139728
0.00143937
0.00148196
0.00152594
0.00157198
0.00162051
0.0016718
0.00172595
0.00178295
0.00184268
0.00190498
0.00196963
0.0020364
0.00210503
0.00217525
0.00224681
0.00231946
0.00239296
0.0024671
0.00254166
0.00261646
0.00269133
0.0027661
0.00284063
0.00291482
0.00298854
0.00306171
0.00313424
0.00320609
0.0032772
0.00334752
0.00341704
0.00348572
0.00355357
0.00362058
0.00368675
0.0037521
0.00381662
0.00388035
0.00394329
0.00400548
0.00406694
0.00412768
0.00418773
0.00424711
0.00430582
0.00436388
0.0044213
0.00447807
0.00453419
0.00458964
0.00464442
0.00469848
0.0047518
0.00480434
0.00485605
0.00490689
0.00495678
0.00500568
0.0050535
0.00510019
0.00514565
0.00518981
0.00523259
0.00527392
0.0053137
0.00535187
0.00538834
0.00542305
0.00545592
0.0054869
0.00551592
0.00554295
0.00556795
0.00559088
0.00561172
0.00563048
0.00564713
0.00566171
0.00567422
0.00568468
0.00569315
0.00569965
0.00570425
0.00570699
0.00570794
0.00570715
0.00570467
0.00570042
0.00569435
0.00568699
0.00567866
0.00566944
0.00565872
0.00564683
0.00563388
0.00562003
0.0056054
0.00559003
0.00557401
0.00555746
0.00554047
0.00552316
0.00550566
0.00548808
0.00547049
0.00545297
0.00543555
0.00541827
0.0054011
0.00538401
0.00536693
0.00534975
0.00533235
0.00531458
0.00529628
0.00527724
0.00525725
0.00523608
0.00521353
0.00518939
0.00516349
0.00513564
0.00510573
0.00507366
0.00503941
0.00500297
0.00496435
0.00492359
0.00488073
0.00483582
0.00478892
0.00474016
0.00468975
0.00463802
0.0045852
0.00453156
0.00447732
0.00442273
0.004368
0.00431336
0.004259
0.00420511
0.00415187
0.00409944
0.00404796
0.00399756
0.00394835
0.00390041
0.00385386
0.0038088
0.00376536
0.00372373
0.00368435
0.0036484
0.00361535
0.00358458
0.00355563
0.00352815
0.00350188
0.00347659
0.0034521
0.0034282
0.00340459
0.00338114
0.0033578
0.00332281
2.06486e-05
0.000203294
0.000427097
0.000623223
0.000787248
0.000924646
0.00103907
0.00113504
0.00121637
0.00128631
0.00134758
0.00140254
0.00145319
0.00150121
0.00154803
0.0015948
0.00164244
0.00169162
0.00174284
0.0017964
0.00185244
0.00191102
0.00197206
0.00203544
0.00210099
0.00216849
0.00223772
0.00230846
0.00238046
0.00245351
0.0025274
0.00260192
0.0026769
0.00275216
0.00282756
0.00290294
0.00297818
0.00305316
0.00312776
0.0032019
0.0032755
0.00334849
0.00342083
0.00349248
0.00356341
0.00363359
0.00370302
0.0037717
0.00383962
0.0039068
0.00397324
0.00403897
0.00410401
0.00416837
0.0042321
0.0042952
0.00435772
0.00441966
0.00448105
0.00454189
0.00460219
0.00466196
0.0047212
0.00477988
0.00483799
0.0048955
0.00495238
0.00500858
0.00506405
0.00511873
0.00517255
0.00522543
0.0052773
0.00532806
0.00537762
0.00542588
0.00547274
0.0055181
0.00556184
0.00560388
0.0056441
0.00568242
0.00571873
0.00575295
0.00578499
0.00581479
0.00584229
0.00586742
0.00589016
0.00591046
0.00592832
0.00594372
0.00595667
0.00596719
0.0059753
0.00598105
0.00598447
0.00598563
0.0059846
0.00598145
0.00597604
0.00596839
0.00595883
0.00594793
0.00593551
0.00592138
0.00590564
0.00588841
0.00586983
0.00585005
0.00582921
0.00580742
0.00578482
0.00576156
0.00573779
0.00571367
0.00568935
0.00566501
0.00564077
0.00561677
0.00559312
0.00556989
0.00554713
0.00552487
0.00550308
0.00548172
0.00546069
0.00543987
0.00541912
0.00539825
0.00537701
0.00535516
0.00533249
0.00530876
0.00528375
0.00525724
0.00522903
0.00519897
0.00516703
0.00513315
0.00509727
0.00505939
0.0050195
0.00497759
0.00493362
0.00488769
0.00484003
0.00479103
0.00474092
0.00468991
0.00463823
0.00458608
0.00453368
0.00448125
0.00442897
0.00437704
0.00432563
0.00427491
0.00422504
0.00417614
0.00412831
0.00408166
0.00403628
0.0039923
0.00394984
0.00390907
0.00387037
0.00383497
0.00380259
0.00377257
0.00374444
0.00371789
0.00369267
0.00366857
0.00364544
0.00362313
0.00360145
0.00358011
0.00355843
0.00352831
2.13222e-05
0.000206954
0.000438314
0.000643353
0.00081622
0.000961977
0.00108456
0.00118811
0.00127655
0.00135315
0.00142066
0.00148141
0.00153737
0.0015902
0.00164127
0.00169174
0.00174249
0.00179424
0.00184749
0.00190257
0.0019597
0.00201896
0.00208033
0.00214374
0.00220906
0.00227613
0.00234474
0.00241472
0.00248585
0.00255796
0.00263086
0.00270438
0.00277839
0.00285275
0.00292735
0.00300204
0.00307671
0.00315121
0.00322542
0.00329926
0.00337265
0.00344552
0.00351784
0.00358956
0.00366067
0.00373114
0.00380096
0.00387014
0.00393867
0.00400656
0.00407384
0.00414051
0.0042066
0.00427215
0.00433719
0.00440175
0.00446586
0.00452955
0.00459284
0.00465573
0.00471825
0.0047804
0.00484217
0.00490357
0.00496456
0.00502512
0.00508522
0.0051448
0.00520381
0.00526218
0.00531982
0.00537666
0.00543258
0.00548749
0.00554127
0.00559381
0.00564497
0.00569462
0.00574265
0.0057889
0.00583326
0.0058756
0.00591579
0.00595371
0.00598925
0.00602232
0.00605282
0.00608067
0.0061058
0.00612817
0.00614774
0.00616447
0.00617836
0.00618941
0.00619764
0.00620307
0.00620576
0.00620576
0.00620313
0.00619793
0.00618994
0.00617961
0.00616703
0.00615253
0.00613596
0.00611733
0.00609674
0.00607432
0.00605022
0.00602459
0.0059976
0.00596941
0.0059402
0.00591015
0.00587947
0.00584834
0.00581699
0.00578563
0.00575445
0.00572366
0.00569342
0.00566389
0.0056352
0.00560743
0.00558062
0.0055548
0.00552991
0.00550586
0.00548254
0.00545987
0.00543747
0.0054151
0.00539256
0.0053696
0.00534596
0.00532134
0.00529548
0.0052681
0.00523923
0.00520872
0.00517646
0.00514237
0.00510639
0.0050685
0.00502842
0.00498623
0.00494214
0.00489675
0.0048502
0.00480267
0.00475435
0.00470544
0.00465614
0.00460668
0.00455723
0.00450798
0.00445912
0.00441082
0.00436324
0.00431651
0.00427073
0.00422601
0.00418245
0.0041402
0.0040994
0.00406021
0.00402303
0.00398898
0.00395772
0.00392873
0.00390161
0.00387608
0.00385193
0.00382899
0.00380713
0.00378623
0.00376618
0.00374679
0.00372686
0.00370079
2.18469e-05
0.000208739
0.000445127
0.000656863
0.00083687
0.000989555
0.00111894
0.001229
0.00132363
0.00140609
0.00147909
0.00154494
0.00160556
0.00166256
0.00171728
0.00177084
0.00182411
0.00187779
0.0019324
0.00198831
0.00204575
0.00210486
0.00216567
0.00222815
0.00229221
0.00235774
0.00242459
0.00249259
0.00256158
0.00263142
0.00270197
0.00277309
0.00284461
0.00291667
0.00298913
0.00306187
0.00313485
0.00320768
0.00328026
0.00335253
0.00342442
0.00349589
0.0035669
0.00363742
0.00370744
0.00377693
0.00384591
0.00391437
0.00398232
0.00404977
0.00411674
0.00418325
0.00424933
0.00431501
0.00438037
0.00444545
0.00451028
0.00457488
0.00463928
0.0047035
0.00476756
0.00483147
0.00489524
0.00495886
0.00502232
0.00508559