/*--------------------------------*- C++ -*----------------------------------*\
| =========                 |                                                 |
| \\      /  F ield         | OpenFOAM: The Open Source CFD Toolbox           |
|  \\    /   O peration     | Version:  v2006                                 |
|   \\  /    A nd           | Website:  www.openfoam.com                      |
|    \\/     M anipulation  |                                                 |
\*---------------------------------------------------------------------------*/
FoamFile
{
    version     2.0;
    format      ascii;
    class       volScalarField;
    location    "100";
    object      p;
}
// * * * * * * * * * * * * * * * * * * * * * * * * * * * * * * * * * * * * * //

dimensions      [0 2 -2 0 0 0 0];


internalField   nonuniform List<scalar> 
12225
(
-2.55526
-4.71285
-5.8059
-6.12048
-6.2985
-6.47871
-6.62855
-6.74238
-6.83657
-6.92237
-7.00316
-7.08026
-7.15529
-7.23021
-7.30787
-7.38855
-7.48742
-7.55672
-5.6854
-6.47321
-6.67889
-6.59166
-6.56785
-6.63361
-6.71843
-6.79491
-6.86693
-6.93902
-7.01102
-7.08226
-7.15326
-7.22514
-7.29993
-7.37945
-7.46925
-7.5837
-6.06543
-5.99962
-6.11963
-6.20756
-6.3171
-6.46107
-6.59758
-6.71016
-6.80664
-6.89512
-6.97822
-7.05703
-7.13305
-7.20805
-7.28429
-7.36337
-7.45044
-7.54332
-5.93812
-5.85096
-6.1106
-6.30365
-6.42734
-6.54999
-6.66528
-6.76174
-6.84531
-6.92331
-6.99815
-7.07039
-7.14102
-7.21134
-7.28286
-7.35651
-7.43355
-7.5078
-5.92965
-5.94444
-6.1919
-6.35782
-6.45191
-6.55173
-6.65567
-6.74815
-6.83058
-6.90839
-6.98345
-7.05598
-7.12666
-7.19649
-7.26648
-7.33687
-7.40715
-7.47275
-5.9906
-6.03588
-6.22287
-6.3637
-6.45501
-6.55251
-6.65472
-6.74712
-6.82969
-6.90717
-6.9815
-7.053
-7.12227
-7.19012
-7.25716
-7.32319
-7.38722
-7.44565
-6.05308
-6.09553
-6.24003
-6.37118
-6.46641
-6.56152
-6.65912
-6.74868
-6.82946
-6.90522
-6.97782
-7.0476
-7.11499
-7.1805
-7.24443
-7.30633
-7.36504
-7.41761
-6.10842
-6.14579
-6.26376
-6.38541
-6.48006
-6.57046
-6.66246
-6.74875
-6.82762
-6.90169
-6.97262
-7.04073
-7.10623
-7.16942
-7.23035
-7.28849
-7.34272
-7.39078
-6.15997
-6.19399
-6.29199
-6.40161
-6.49276
-6.57855
-6.66547
-6.74847
-6.82528
-6.89753
-6.96664
-7.03288
-7.09633
-7.15707
-7.21505
-7.26972
-7.32015
-7.36462
-6.20879
-6.23956
-6.32136
-6.41869
-6.50524
-6.58684
-6.66897
-6.74839
-6.82277
-6.89293
-6.95998
-7.02414
-7.08535
-7.14359
-7.19872
-7.25025
-7.29744
-7.33903
-6.25468
-6.28195
-6.35076
-6.43678
-6.51804
-6.59543
-6.67289
-6.74852
-6.82015
-6.888
-6.95282
-7.01474
-7.07361
-7.12934
-7.18176
-7.23045
-7.27488
-7.31413
-6.29386
-6.31801
-6.3773
-6.45403
-6.52996
-6.60334
-6.67667
-6.74875
-6.81768
-6.88324
-6.94586
-7.00562
-7.06232
-7.11578
-7.16584
-7.21218
-7.25442
-7.29188
-6.32978
-6.35126
-6.40271
-6.47115
-6.54171
-6.61106
-6.68045
-6.74903
-6.81518
-6.87835
-6.93871
-6.99627
-7.05081
-7.10211
-7.14997
-7.19417
-7.23448
-7.27042
-6.36701
-6.38585
-6.43001
-6.49024
-6.55479
-6.61957
-6.68462
-6.7493
-6.81221
-6.8726
-6.93033
-6.98535
-7.03746
-7.08641
-7.13199
-7.17401
-7.21238
-7.24682
-6.404
-6.42028
-6.4579
-6.51036
-6.5686
-6.62835
-6.68879
-6.74922
-6.80851
-6.86575
-6.92055
-6.97273
-7.02217
-7.06863
-7.1119
-7.15178
-7.18828
-7.22128
-6.43838
-6.45232
-6.48435
-6.52987
-6.58187
-6.63644
-6.69218
-6.74824
-6.80363
-6.85748
-6.90916
-6.9584
-7.00501
-7.04893
-7.08991
-7.12781
-7.16255
-7.19421
-6.46673
-6.47872
-6.50627
-6.54602
-6.59244
-6.64209
-6.69339
-6.74528
-6.79683
-6.84725
-6.89586
-6.9422
-6.9861
-7.02753
-7.06637
-7.10244
-7.13566
-7.16609
-6.48402
-6.49459
-6.51899
-6.55459
-6.59677
-6.64249
-6.69016
-6.7386
-6.78689
-6.8343
-6.8802
-6.92405
-6.96561
-7.00489
-7.04187
-7.07639
-7.10834
-7.13776
-6.48252
-6.49243
-6.5154
-6.54913
-6.58935
-6.63309
-6.67878
-6.72527
-6.77164
-6.81719
-6.86132
-6.90349
-6.9435
-6.98133
-7.01705
-7.05051
-7.08162
-7.11043
-6.45669
-6.46709
-6.49121
-6.52658
-6.56849
-6.61347
-6.65995
-6.70698
-6.75377
-6.79949
-6.84364
-6.88567
-6.92552
-6.96306
-6.99848
-7.03157
-7.06239
-7.09096
-6.42129
-6.43258
-6.45912
-6.49827
-6.54391
-6.59179
-6.64053
-6.68962
-6.73805
-6.78502
-6.82996
-6.87269
-6.91302
-6.95106
-6.98669
-7.01999
-7.05085
-7.07968
-6.37813
-6.39012
-6.42041
-6.46614
-6.51737
-6.5687
-6.62038
-6.67251
-6.72369
-6.77265
-6.81902
-6.8628
-6.90401
-6.94268
-6.97875
-7.01226
-7.04329
-7.07216
-6.33055
-6.34184
-6.37661
-6.43235
-6.49124
-6.54654
-6.60138
-6.65675
-6.71072
-6.76188
-6.81005
-6.85534
-6.89783
-6.93744
-6.97426
-7.00831
-7.03989
-7.06932
-6.28105
-6.28999
-6.33107
-6.39814
-6.46379
-6.52407
-6.5845
-6.64441
-6.70104
-6.75382
-6.8033
-6.84969
-6.89292
-6.93302
-6.97006
-7.00429
-7.03591
-7.06527
-6.22958
-6.23074
-6.2934
-6.37459
-6.43753
-6.49745
-6.56414
-6.6308
-6.692
-6.74806
-6.80031
-6.84898
-6.89389
-6.93511
-6.9729
-7.00762
-7.03966
-7.06974
-6.18309
-6.13448
-6.25005
-6.37113
-6.43307
-6.48488
-6.54863
-6.6144
-6.67499
-6.73107
-6.78401
-6.83368
-6.87966
-6.92193
-6.96072
-6.99641
-7.0293
-7.05975
-6.20005
-6.0019
-6.13484
-6.31247
-6.41722
-6.497
-6.57548
-6.64678
-6.7087
-6.76449
-6.81613
-6.8638
-6.9073
-6.94697
-6.98313
-7.01629
-7.04706
-7.07672
-6.34086
-6.09324
-6.06954
-6.12414
-6.20642
-6.31411
-6.42433
-6.52089
-6.60442
-6.67931
-6.74726
-6.80829
-6.86264
-6.91109
-6.95428
-6.99293
-7.02801
-7.06114
-6.06879
-6.69931
-6.81779
-6.67723
-6.58877
-6.59517
-6.63624
-6.67993
-6.72417
-6.77075
-6.81794
-6.86345
-6.90598
-6.94533
-6.98138
-7.01404
-7.04392
-7.07266
-3.0143
-4.78127
-5.79421
-6.07516
-6.20081
-6.34251
-6.47131
-6.57078
-6.65166
-6.72319
-6.78754
-6.84478
-6.89553
-6.9405
-6.98022
-7.01498
-7.04513
-7.06943
-8.16612
-8.16525
-8.16466
-8.16606
-8.16927
-8.17354
-8.17841
-8.18343
-8.18827
-8.19285
-8.19739
-8.20215
-8.20738
-8.21312
-8.2195
-8.22664
-8.23477
-8.24402
-8.25455
-8.26652
-8.28015
-8.29558
-8.31301
-8.33253
-8.3543
-8.37837
-8.40482
-8.43359
-8.46468
-8.4979
-8.53313
-8.57006
-8.60847
-8.64797
-8.68827
-8.72898
-8.76977
-8.81028
-8.85022
-8.88926
-8.92718
-8.96374
-8.99877
-9.03208
-9.06357
-9.09312
-9.12065
-9.14611
-9.16942
-9.19057
-9.2095
-9.22623
-9.24071
-9.25297
-9.26294
-9.27069
-9.27614
-9.27938
-9.28029
-9.279
-9.27541
-9.26965
-9.26158
-9.25139
-9.23892
-9.22441
-9.20767
-9.18896
-9.16809
-9.14535
-9.12052
-9.09393
-9.06532
-9.03507
-9.00292
-8.96928
-8.93384
-8.89696
-8.85833
-8.81838
-8.77671
-8.73364
-8.68873
-8.64239
-8.5941
-8.5442
-8.49201
-8.43747
-8.37975
-8.31854
-8.25392
-8.18541
-8.1125
-8.03452
-7.95095
-7.86112
-7.76444
-7.66016
-7.54751
-7.42548
-7.29307
-7.14906
-6.99214
-6.82092
-6.63386
-6.42965
-6.20702
-5.96525
-5.7032
-5.41994
-5.11431
-4.78546
-4.43252
-4.05501
-3.65241
-3.22463
-2.77138
-2.29298
-1.7899
-1.26302
-0.713361
-0.142285
0.448621
1.05732
1.68147
2.3183
2.96486
3.61793
4.27421
4.93024
5.58259
6.22785
6.86269
7.48397
8.08872
8.67424
9.23812
9.77828
10.293
10.7811
11.2415
11.674
12.0786
12.4557
12.8061
13.1311
13.4318
13.7086
13.9622
14.1935
14.4038
14.5943
14.7665
14.9217
15.0612
15.1863
15.2983
15.3984
15.4876
15.567
15.6376
15.7001
15.7554
15.8042
15.8472
15.8851
15.9184
15.9477
15.9736
15.9965
16.0172
16.0361
16.0543
16.0728
16.0933
16.1184
16.1548
16.2092
16.3087
16.4423
-8.16868
-8.16742
-8.16711
-8.16967
-8.17335
-8.17678
-8.1797
-8.18217
-8.18425
-8.186
-8.18765
-8.1894
-8.19153
-8.19433
-8.19806
-8.20278
-8.20851
-8.21531
-8.22335
-8.23281
-8.24392
-8.25688
-8.27195
-8.28932
-8.30915
-8.33152
-8.35656
-8.38425
-8.41457
-8.44735
-8.48241
-8.51945
-8.55817
-8.59818
-8.63909
-8.68049
-8.72198
-8.76318
-8.80375
-8.84339
-8.88183
-8.91884
-8.95425
-8.9879
-9.01967
-9.04946
-9.0772
-9.10284
-9.12631
-9.1476
-9.16667
-9.18352
-9.1981
-9.21045
-9.22051
-9.22832
-9.23383
-9.23707
-9.23801
-9.2367
-9.23307
-9.22721
-9.21906
-9.2087
-9.19609
-9.18133
-9.16437
-9.14534
-9.12418
-9.10105
-9.07588
-9.04885
-9.01987
-8.98915
-8.95662
-8.92248
-8.88663
-8.84925
-8.81026
-8.76987
-8.72792
-8.68457
-8.63962
-8.59323
-8.54515
-8.49548
-8.44387
-8.3901
-8.3335
-8.27395
-8.21124
-8.14498
-8.07455
-7.99933
-7.91874
-7.83212
-7.73879
-7.63795
-7.52872
-7.41008
-7.28102
-7.14037
-6.98702
-6.81961
-6.63702
-6.43802
-6.22148
-5.98606
-5.73083
-5.45466
-5.15655
-4.83557
-4.49096
-4.12204
-3.72826
-3.3092
-2.8649
-2.39553
-1.90143
-1.38332
-0.842233
-0.27941
0.30367
0.905119
1.52267
2.15369
2.79529
3.44435
4.0976
4.75163
5.403
6.04828
6.68412
7.30729
7.91477
8.50376
9.07175
9.6166
10.1365
10.6301
11.0964
11.5349
11.9455
12.3286
12.6846
13.0143
13.3191
13.6002
13.8583
14.0942
14.3093
14.5047
14.6816
14.8415
14.9856
15.1151
15.2314
15.3356
15.4287
15.5118
15.5858
15.6516
15.71
15.7617
15.8075
15.848
15.8837
15.9153
15.9432
15.9682
15.9907
16.0115
16.0314
16.0516
16.0737
16.1003
16.1364
16.1868
16.2754
16.3857
-8.16529
-8.16492
-8.16533
-8.16796
-8.17114
-8.17344
-8.17461
-8.17486
-8.17444
-8.17354
-8.17248
-8.17161
-8.17127
-8.17169
-8.173
-8.17529
-8.1787
-8.18337
-8.18954
-8.19746
-8.2074
-8.21957
-8.23418
-8.2514
-8.2714
-8.29422
-8.31987
-8.34822
-8.37915
-8.4124
-8.4477
-8.4847
-8.52307
-8.56244
-8.60246
-8.64279
-8.6831
-8.72307
-8.76241
-8.80087
-8.83821
-8.87423
-8.90876
-8.94164
-8.97276
-9.00202
-9.02931
-9.05459
-9.07778
-9.09885
-9.11775
-9.13447
-9.14896
-9.16124
-9.17125
-9.17902
-9.1845
-9.18771
-9.18863
-9.18726
-9.1836
-9.17766
-9.16943
-9.15895
-9.14621
-9.13128
-9.11415
-9.09489
-9.07351
-9.05008
-9.02465
-8.9973
-8.96804
-8.93699
-8.90419
-8.86974
-8.83365
-8.796
-8.75684
-8.71624
-8.6742
-8.63076
-8.58591
-8.53965
-8.4919
-8.44263
-8.39167
-8.33872
-8.28339
-8.2254
-8.16468
-8.10081
-8.03311
-7.96111
-7.8841
-7.80151
-7.71252
-7.61638
-7.51208
-7.39864
-7.27496
-7.13994
-6.99248
-6.8313
-6.65534
-6.46337
-6.25437
-6.02696
-5.78014
-5.51264
-5.2236
-4.91198
-4.57709
-4.21805
-3.83437
-3.42555
-2.99169
-2.53276
-2.04913
-1.54139
-1.01052
-0.457635
0.115862
0.708209
1.31725
1.94046
2.57508
3.21806
3.86622
4.51618
5.16457
5.80792
6.44291
7.06624
7.67486
8.26593
8.83691
9.38562
9.91025
10.4094
10.8822
11.328
11.7466
12.1382
12.5033
12.8425
13.1568
13.4471
13.7141
13.9588
14.1822
14.3856
14.5702
14.7373
14.8882
15.0243
15.1467
15.2565
15.355
15.443
15.5217
15.5918
15.6542
15.7097
15.759
15.8026
15.8413
15.8757
15.9063
15.9337
15.9584
15.9813
16.0032
16.0252
16.0489
16.0765
16.1121
16.1584
16.2331
16.308
-8.15409
-8.15638
-8.15913
-8.1626
-8.16576
-8.16775
-8.16849
-8.16824
-8.16724
-8.16573
-8.16398
-8.16227
-8.16093
-8.16021
-8.16037
-8.16163
-8.16424
-8.16842
-8.17439
-8.18235
-8.19253
-8.20507
-8.22013
-8.23778
-8.2581
-8.28108
-8.30671
-8.33487
-8.36541
-8.3981
-8.43269
-8.46885
-8.5063
-8.54468
-8.58368
-8.62296
-8.66221
-8.70111
-8.73941
-8.77684
-8.8132
-8.84827
-8.88191
-8.91396
-8.94429
-8.97282
-8.99945
-9.02411
-9.04673
-9.06728
-9.08571
-9.10199
-9.11609
-9.12798
-9.13765
-9.14508
-9.15024
-9.15315
-9.15376
-9.1521
-9.14814
-9.1419
-9.13337
-9.12259
-9.10955
-9.09429
-9.07683
-9.05723
-9.03551
-9.01175
-8.98598
-8.9583
-8.92875
-8.89743
-8.8644
-8.82976
-8.79354
-8.75583
-8.71669
-8.67618
-8.63433
-8.59116
-8.54669
-8.50091
-8.45377
-8.40521
-8.35511
-8.30322
-8.24914
-8.1928
-8.13394
-8.07215
-8.00691
-7.93764
-7.86377
-7.78459
-7.69937
-7.60725
-7.50727
-7.39843
-7.27963
-7.14977
-7.00769
-6.85223
-6.68221
-6.49653
-6.29403
-6.07347
-5.83365
-5.57341
-5.29176
-4.98773
-4.66049
-4.30928
-3.9335
-3.53276
-3.10695
-2.65603
-2.18031
-1.68038
-1.15713
-0.6116
-0.0451671
0.540466
1.14321
1.76066
2.3901
3.02857
3.67292
4.31984
4.96594
5.60778
6.242
6.86531
7.47462
8.06708
8.64016
9.19171
9.71995
10.2236
10.7016
11.1534
11.5787
11.9774
12.3499
12.6967
13.0186
13.3162
13.5904
13.8421
14.0722
14.2822
14.473
14.6462
14.8029
14.9444
15.0719
15.1866
15.2896
15.3819
15.4645
15.5383
15.6042
15.6629
15.7151
15.7615
15.8028
15.8395
15.8723
15.9017
15.9283
15.9529
15.9762
15.9994
16.0238
16.0512
16.0849
16.1253
16.1841
16.2278
-8.13479
-8.14
-8.1467
-8.15263
-8.15707
-8.15987
-8.16116
-8.16127
-8.16051
-8.15915
-8.15749
-8.15582
-8.15449
-8.15377
-8.154
-8.15543
-8.15833
-8.16292
-8.16942
-8.17802
-8.1889
-8.20218
-8.218
-8.23641
-8.25745
-8.28106
-8.30717
-8.33563
-8.36626
-8.39882
-8.43307
-8.46869
-8.50542
-8.54292
-8.5809
-8.61906
-8.65711
-8.69478
-8.73184
-8.76804
-8.80319
-8.83711
-8.86964
-8.90064
-8.92999
-8.9576
-8.98337
-9.00723
-9.02911
-9.04896
-9.06674
-9.08241
-9.09592
-9.10726
-9.11639
-9.1233
-9.12795
-9.13034
-9.13045
-9.12827
-9.12379
-9.11703
-9.10797
-9.09665
-9.08305
-9.06724
-9.04921
-9.02905
-9.00677
-8.98245
-8.95615
-8.92795
-8.89793
-8.86618
-8.83279
-8.79785
-8.76145
-8.72365
-8.68455
-8.64421
-8.60267
-8.55998
-8.51615
-8.47117
-8.425
-8.37759
-8.32882
-8.27845
-8.22624
-8.17184
-8.11533
-8.05604
-7.9936
-7.92736
-7.85684
-7.78125
-7.69994
-7.61194
-7.51639
-7.41226
-7.29842
-7.17381
-7.03713
-6.88735
-6.72311
-6.54346
-6.347
-6.13267
-5.89903
-5.64515
-5.36975
-5.07206
-4.75102
-4.40611
-4.03651
-3.64194
-3.22204
-2.77686
-2.3066
-1.81191
-1.29352
-0.75251
-0.190185
0.391734
0.991206
1.60586
2.23301
2.86975
3.51289
4.15917
4.80514
5.44739
6.08247
6.70714
7.31823
7.91293
8.48872
9.04347
9.57544
10.0832
10.5659
11.0225
11.453
11.857
12.2349
12.5871
12.9142
13.217
13.4962
13.7527
13.9877
14.2022
14.3976
14.5752
14.7361
14.8816
15.013
15.1313
15.2378
15.3333
15.419
15.4956
15.5641
15.6252
15.6797
15.7282
15.7714
15.8099
15.8443
15.8751
15.9031
15.9287
15.9529
15.9765
16.0007
16.0268
16.0572
16.0906
16.135
16.1535
-8.11018
-8.11825
-8.12992
-8.1391
-8.14548
-8.14976
-8.15227
-8.15338
-8.15348
-8.15289
-8.15194
-8.15095
-8.15028
-8.15025
-8.15121
-8.15343
-8.1572
-8.16275
-8.1703
-8.18
-8.19202
-8.20645
-8.22337
-8.24279
-8.26472
-8.28906
-8.31572
-8.34452
-8.37526
-8.40769
-8.44158
-8.47665
-8.51262
-8.54922
-8.58618
-8.62321
-8.66009
-8.69655
-8.73238
-8.76736
-8.80132
-8.83408
-8.8655
-8.89544
-8.92378
-8.95043
-8.9753
-8.9983
-9.01938
-9.03847
-9.05551
-9.07048
-9.08332
-9.09401
-9.10249
-9.10875
-9.11276
-9.11451
-9.11396
-9.11112
-9.10597
-9.09851
-9.08873
-9.07668
-9.06234
-9.04577
-9.02699
-9.00606
-8.98301
-8.95795
-8.93092
-8.90203
-8.87136
-8.83902
-8.80511
-8.76975
-8.73303
-8.69505
-8.65591
-8.6157
-8.57448
-8.53231
-8.48921
-8.44518
-8.40021
-8.35422
-8.30712
-8.25873
-8.2086
-8.15687
-8.10302
-8.04681
-7.98762
-7.92498
-7.85824
-7.78676
-7.70973
-7.62632
-7.5356
-7.43652
-7.32802
-7.20888
-7.07794
-6.93394
-6.77573
-6.6021
-6.41179
-6.20349
-5.97597
-5.72805
-5.45867
-5.16683
-4.85163
-4.51232
-4.14821
-3.75881
-3.34383
-2.90322
-2.43722
-1.94636
-1.43134
-0.893209
-0.333266
0.246771
0.844876
1.45868
2.08551
2.72243
3.36627
4.01371
4.66128
5.30554
5.94302
6.57043
7.18462
7.78277
8.36236
8.92123
9.45756
9.96989
10.4571
10.9185
11.3536
11.7622
12.1446
12.5012
12.8324
13.1391
13.4221
13.6824
13.921
14.139
14.3379
14.5187
14.6828
14.8314
14.9657
15.0868
15.196
15.2941
15.3822
15.4611
15.5317
15.5948
15.6511
15.7012
15.7459
15.7857
15.8213
15.8532
15.882
15.9083
15.9327
15.9562
15.9795
16.0035
16.0298
16.0561
16.0879
16.0863
-8.08423
-8.09489
-8.11157
-8.12407
-8.13259
-8.13868
-8.1428
-8.14531
-8.14668
-8.14729
-8.14752
-8.1477
-8.1482
-8.14936
-8.15153
-8.15499
-8.16003
-8.16687
-8.17573
-8.18675
-8.20006
-8.21572
-8.23377
-8.25419
-8.27695
-8.30192
-8.329
-8.358
-8.38874
-8.42097
-8.45447
-8.48899
-8.52427
-8.56005
-8.59609
-8.63213
-8.66795
-8.70331
-8.73803
-8.77189
-8.80475
-8.83642
-8.86678
-8.8957
-8.92307
-8.94878
-8.97275
-8.99489
-9.01514
-9.03344
-9.04972
-9.06395
-9.07605
-9.08601
-9.09377
-9.0993
-9.10257
-9.10356
-9.10224
-9.0986
-9.09261
-9.0843
-9.07365
-9.06069
-9.04543
-9.02792
-9.00818
-8.98629
-8.9623
-8.9363
-8.90837
-8.87861
-8.84714
-8.81407
-8.77952
-8.74361
-8.70648
-8.66824
-8.62901
-8.58889
-8.54797
-8.50632
-8.464
-8.42101
-8.37734
-8.33295
-8.28774
-8.24147
-8.19397
-8.14493
-8.09426
-8.0415
-7.98598
-7.92733
-7.86482
-7.79785
-7.72555
-7.64713
-7.5616
-7.46792
-7.36503
-7.2516
-7.12658
-6.98852
-6.83644
-6.66885
-6.48466
-6.28233
-6.06084
-5.81875
-5.55521
-5.269
-4.95933
-4.62518
-4.26601
-3.88118
-3.47048
-3.03373
-2.57123
-2.08331
-1.57075
-1.03447
-0.475846
0.103435
0.701336
1.31547
1.94319
2.58148
3.22719
3.87689
4.52718
5.17447
5.81537
6.44649
7.06473
7.6672
8.25134
8.81491
9.35601
9.87315
10.3651
10.8312
11.2707
11.6837
12.0702
12.4305
12.7654
13.0755
13.3617
13.625
13.8665
14.0874
14.289
14.4724
14.639
14.79
14.9266
15.0501
15.1613
15.2615
15.3516
15.4324
15.5048
15.5695
15.6273
15.6788
15.7247
15.7656
15.8021
15.8348
15.8641
15.8907
15.9151
15.9379
15.9598
15.9814
16.0032
16.0224
16.0434
16.0256
-8.06052
-8.07315
-8.09414
-8.10956
-8.12009
-8.128
-8.13381
-8.13786
-8.14068
-8.1427
-8.14433
-8.14591
-8.14784
-8.15043
-8.15403
-8.15891
-8.16537
-8.1736
-8.18381
-8.19612
-8.21065
-8.22743
-8.24648
-8.26776
-8.29121
-8.3167
-8.34412
-8.37326
-8.40396
-8.43598
-8.46912
-8.50313
-8.53778
-8.57281
-8.60803
-8.64317
-8.67805
-8.71243
-8.74615
-8.77902
-8.81089
-8.84159
-8.871
-8.89899
-8.92546
-8.95031
-8.97345
-8.99479
-9.01426
-9.0318
-9.04733
-9.06081
-9.07217
-9.08138
-9.08837
-9.09313
-9.09559
-9.09574
-9.09355
-9.08899
-9.08206
-9.07276
-9.06108
-9.04705
-9.0307
-9.01206
-8.99119
-8.96815
-8.94303
-8.91591
-8.88689
-8.85611
-8.82368
-8.78974
-8.75442
-8.71788
-8.68026
-8.64171
-8.60236
-8.56233
-8.52174
-8.48067
-8.4392
-8.39736
-8.35514
-8.3125
-8.26937
-8.22554
-8.18071
-8.13489
-8.08767
-8.0386
-7.9872
-7.93285
-7.875
-7.81289
-7.74573
-7.67266
-7.59268
-7.50475
-7.40766
-7.30025
-7.18123
-7.04937
-6.90335
-6.74191
-6.56369
-6.36742
-6.1518
-5.91556
-5.65758
-5.37679
-5.0722
-4.74288
-4.38813
-4.0074
-3.60037
-3.16691
-2.70717
-2.22148
-1.71054
-1.17531
-0.61716
-0.0377686
0.5608
1.17616
1.80561
2.44613
3.0945
3.74729
4.40102
5.05213
5.69716
6.33273
6.95564
7.56296
8.15205
8.72061
9.26667
9.78867
10.2854
10.7559
11.1998
11.6168
12.0071
12.3709
12.709
13.0221
13.3111
13.577
13.821
14.0442
14.248
14.4336
14.6023
14.7553
14.8938
15.0191
15.1321
15.2339
15.3256
15.408
15.4818
15.548
15.6071
15.6598
15.7068
15.7486
15.7859
15.8191
15.8487
15.8753
15.8993
15.9213
15.9415
15.9602
15.9776
15.99
16.0016
15.9707
-8.04148
-8.05547
-8.07959
-8.09723
-8.10939
-8.11887
-8.12622
-8.13173
-8.13595
-8.13938
-8.14243
-8.14545
-8.14883
-8.15288
-8.15792
-8.16421
-8.17205
-8.18159
-8.19305
-8.20651
-8.2221
-8.23981
-8.25967
-8.28161
-8.30558
-8.33144
-8.35906
-8.38825
-8.41885
-8.45064
-8.48342
-8.51694
-8.55102
-8.5854
-8.61988
-8.65425
-8.68831
-8.72186
-8.75473
-8.78675
-8.81777
-8.84764
-8.87624
-8.90344
-8.92914
-8.95325
-8.97565
-8.99628
-9.01505
-9.0319
-9.04673
-9.05951
-9.07015
-9.07862
-9.08484
-9.08879
-9.09041
-9.08967
-9.08652
-9.08097
-9.07297
-9.06255
-9.0497
-9.03446
-9.01683
-8.9969
-8.9747
-8.95034
-8.92388
-8.89546
-8.86518
-8.83319
-8.79963
-8.76467
-8.72847
-8.69119
-8.653
-8.61408
-8.57458
-8.53465
-8.49442
-8.454
-8.41348
-8.37291
-8.33229
-8.2916
-8.25076
-8.20956
-8.16788
-8.12532
-8.08191
-8.0369
-7.98989
-7.94023
-7.88737
-7.83049
-7.76883
-7.70146
-7.62736
-7.5455
-7.45452
-7.35337
-7.24054
-7.11498
-6.97513
-6.81991
-6.64776
-6.45758
-6.24776
-6.01726
-5.76465
-5.48906
-5.18921
-4.86437
-4.5136
-4.13652
-3.73263
-3.30188
-2.84424
-2.36013
-1.85012
-1.31525
-0.756855
-0.176665
0.423255
1.04051
1.67232
2.31571
2.96734
3.62385
4.28165
4.93724
5.587
6.22756
6.85561
7.46815
8.06247
8.63617
9.18727
9.71409
10.2154
10.6903
11.1383
11.5591
11.9528
12.3199
12.6609
12.9766
13.268
13.5362
13.7823
14.0075
14.2132
14.4006
14.571
14.7257
14.8658
14.9925
15.107
15.2103
15.3033
15.3869
15.462
15.5293
15.5896
15.6433
15.6912
15.7339
15.7718
15.8054
15.8353
15.8617
15.8852
15.906
15.9244
15.9401
15.9531
15.9591
15.9627
15.9212
-8.0286
-8.04333
-8.0691
-8.08807
-8.10133
-8.11195
-8.1205
-8.12723
-8.13268
-8.13736
-8.14171
-8.14606
-8.15078
-8.15616
-8.16252
-8.17009
-8.17914
-8.18982
-8.20233
-8.21674
-8.23316
-8.25159
-8.27204
-8.29444
-8.31873
-8.34477
-8.37245
-8.40158
-8.43201
-8.46351
-8.49591
-8.52898
-8.56253
-8.59632
-8.63018
-8.66389
-8.69727
-8.73013
-8.76231
-8.79364
-8.82398
-8.85318
-8.88113
-8.90769
-8.93278
-8.95627
-8.97808
-8.99811
-9.01629
-9.03252
-9.04674
-9.05887
-9.06883
-9.07658
-9.08204
-9.08517
-9.08591
-9.08422
-9.08005
-9.0734
-9.06423
-9.05257
-9.0384
-9.02178
-9.00272
-8.98131
-8.9576
-8.9317
-8.90372
-8.87379
-8.84205
-8.80868
-8.77383
-8.73769
-8.70046
-8.66232
-8.62348
-8.58413
-8.54445
-8.50462
-8.46478
-8.42508
-8.3856
-8.34643
-8.30757
-8.26901
-8.23068
-8.19243
-8.1539
-8.11519
-8.0757
-8.0351
-7.99276
-7.94815
-7.90056
-7.84927
-7.79343
-7.73208
-7.66421
-7.58862
-7.5041
-7.40928
-7.30291
-7.18366
-7.05025
-6.90127
-6.73536
-6.55112
-6.34715
-6.12215
-5.87485
-5.6041
-5.3088
-4.988
-4.64094
-4.26705
-3.8659
-3.43733
-2.98132
-2.49822
-1.98866
-1.45366
-0.894579
-0.313142
0.288569
0.908111
1.54274
2.18943
2.84488
3.50563
4.16811
4.82868
5.48371
6.12967
6.7632
7.38122
7.98092
8.55986
9.11597
9.64755
10.1533
10.6324
11.0842
11.5085
11.9055
12.2754
12.619
12.9371
13.2307
13.5008
13.7488
13.9757
14.183
14.372
14.5438
14.6999
14.8414
14.9694
15.0852
15.1896
15.2838
15.3685
15.4447
15.513
15.5742
15.6288
15.6776
15.7209
15.7594
15.7934
15.8233
15.8495
15.8723
15.8919
15.9083
15.921
15.9297
15.93
15.9267
15.8764
-8.02241
-8.03725
-8.06306
-8.08241
-8.09621
-8.10748
-8.1168
-8.12439
-8.13079
-8.13648
-8.14189
-8.14734
-8.15319
-8.15969
-8.16715
-8.17577
-8.18581
-8.1974
-8.21072
-8.22584
-8.24285
-8.26176
-8.28257
-8.30522
-8.32964
-8.35571
-8.38331
-8.41227
-8.44243
-8.47361
-8.50562
-8.53825
-8.57132
-8.6046
-8.63793
-8.67109
-8.70392
-8.73624
-8.76788
-8.79868
-8.82851
-8.85721
-8.88467
-8.91076
-8.93538
-8.95841
-8.97976
-8.99933
-9.01703
-9.03276
-9.04643
-9.05798
-9.06731
-9.07436
-9.07906
-9.08136
-9.08117
-9.07846
-9.07319
-9.06534
-9.05488
-9.04182
-9.02618
-9.008
-8.98732
-8.96423
-8.9388
-8.91117
-8.88146
-8.84982
-8.81643
-8.78148
-8.74515
-8.70769
-8.66929
-8.63018
-8.5906
-8.55076
-8.51087
-8.47114
-8.43173
-8.3928
-8.35447
-8.31682
-8.27988
-8.24365
-8.20805
-8.17288
-8.13801
-8.1031
-8.06797
-8.03204
-7.99468
-7.95537
-7.91335
-7.8679
-7.81815
-7.76307
-7.70165
-7.63252
-7.55457
-7.46622
-7.36643
-7.25362
-7.1267
-6.98397
-6.82426
-6.64585
-6.44762
-6.22792
-5.98572
-5.71959
-5.42859
-5.1116
-4.76798
-4.397
-3.99832
-3.5716
-3.11695
-2.63459
-2.12528
-1.58996
-1.03
-0.447096
0.156677
0.778857
1.41673
2.06719
2.72696
3.39246
4.06009
4.72606
5.3867
6.03834
6.67757
7.3012
7.90635
8.49052
9.05156
9.58778
10.0978
10.5808
11.0362
11.4638
11.8637
12.2362
12.5821
12.9023
13.1978
13.4697
13.7192
13.9477
14.1563
14.3466
14.5197
14.677
14.8197
14.9489
15.0657
15.1712
15.2664
15.3521
15.4292
15.4984
15.5604
15.6159
15.6654
15.7094
15.7483
15.7825
15.8124
15.8383
15.8603
15.8786
15.893
15.9029
15.9076
15.9027
15.8933
15.8359
-8.02252
-8.03683
-8.06135
-8.0802
-8.09396
-8.10534
-8.11495
-8.123
-8.12999
-8.13637
-8.14254
-8.14881
-8.15551
-8.16286
-8.17116
-8.18057
-8.19134
-8.20357
-8.21745
-8.23303
-8.2504
-8.26956
-8.29052
-8.31321
-8.33759
-8.36353
-8.39092
-8.4196
-8.44944
-8.48025
-8.51187
-8.54407
-8.5767
-8.60953
-8.64241
-8.67512
-8.70753
-8.73943
-8.77068
-8.80111
-8.83059
-8.85897
-8.88612
-8.91191
-8.93623
-8.95896
-8.98
-8.99922
-9.01654
-9.03186
-9.04507
-9.05609
-9.06482
-9.07119
-9.07511
-9.07654
-9.07537
-9.07157
-9.06509
-9.0559
-9.044
-9.02939
-9.01209
-8.99216
-8.96965
-8.94466
-8.91729
-8.8877
-8.85603
-8.82247
-8.78721
-8.75048
-8.71251
-8.67355
-8.63385
-8.59367
-8.55326
-8.51287
-8.47275
-8.43312
-8.39418
-8.3561
-8.31902
-8.28303
-8.24817
-8.21444
-8.18177
-8.14998
-8.1188
-8.08817
-8.05759
-8.02653
-7.99441
-7.9606
-7.9244
-7.88501
-7.8415
-7.79289
-7.73795
-7.67547
-7.60404
-7.52238
-7.4291
-7.3229
-7.20231
-7.0659
-6.91215
-6.73962
-6.54685
-6.33244
-6.09509
-5.83358
-5.54675
-5.23361
-4.89336
-4.52532
-4.12902
-3.70416
-3.25077
-2.76914
-2.25994
-1.72412
-1.16301
-0.578304
0.0279102
0.653184
1.29473
1.94943
2.6139
3.28454
3.95762
4.62928
5.29571
5.95319
6.59818
7.22743
7.83798
8.42726
8.99309
9.53374
10.0478
10.5345
10.9932
11.4237
11.8262
12.2011
12.5491
12.8711
13.1682
13.4416
13.6925
13.9222
14.1321
14.3236
14.4978
14.6562
14.7999
14.9301
15.0479
15.1544
15.2505
15.3372
15.4151
15.4851
15.548
15.6042
15.6543
15.6988
15.7381
15.7725
15.8024
15.8279
15.8491
15.8661
15.8786
15.8857
15.8867
15.8771
15.8625
15.7993
-8.02797
-8.04117
-8.06346
-8.08109
-8.09423
-8.1052
-8.11462
-8.12271
-8.12991
-8.13662
-8.14322
-8.14999
-8.15722
-8.16513
-8.17396
-8.18388
-8.1951
-8.20772
-8.22191
-8.2377
-8.2552
-8.27439
-8.2953
-8.31786
-8.34203
-8.36771
-8.39478
-8.42312
-8.45259
-8.48301
-8.51422
-8.54601
-8.57823
-8.61067
-8.64317
-8.67554
-8.70762
-8.73923
-8.77022
-8.80043
-8.82971
-8.85791
-8.88491
-8.91055
-8.93472
-8.95729
-8.97813
-8.99714
-9.01418
-9.02917
-9.04197
-9.0525
-9.06064
-9.06632
-9.06944
-9.06992
-9.06768
-9.06267
-9.05483
-9.04416
-9.03062
-9.01426
-8.99509
-8.97316
-8.94857
-8.92142
-8.89186
-8.86004
-8.82615
-8.7904
-8.75303
-8.71429
-8.67445
-8.6338
-8.59262
-8.55121
-8.50986
-8.46885
-8.42845
-8.38891
-8.35045
-8.31328
-8.27753
-8.24331
-8.21068
-8.17963
-8.15008
-8.12185
-8.09477
-8.06846
-8.04272
-8.01679
-7.99015
-7.96209
-7.93192
-7.8988
-7.86172
-7.81973
-7.77143
-7.71572
-7.65098
-7.57611
-7.48947
-7.38993
-7.27574
-7.14566
-6.99793
-6.83131
-6.64407
-6.43503
-6.20263
-5.94578
-5.66314
-5.35387
-5.01696
-4.65182
-4.25778
-3.83465
-3.38233
-2.90119
-2.39179
-1.85514
-1.29251
-0.705632
-0.0966002
0.532141
1.1777
1.83696
2.5064
3.18241
3.86107
4.53851
5.21076
5.87405
6.52475
7.15949
7.77529
8.36947
8.93987
9.48467
10.0025
10.4926
10.9542
11.3874
11.7921
12.1691
12.5189
12.8425
13.141
13.4157
13.6678
13.8987
14.1096
14.3021
14.4773
14.6367
14.7813
14.9125
15.0313
15.1387
15.2357
15.3232
15.402
15.4728
15.5364
15.5933
15.6441
15.6891
15.7287
15.7633
15.793
15.8181
15.8386
15.8543
15.8649
15.8694
15.867
15.8532
15.8341
15.7662
-8.03754
-8.04923
-8.06868
-8.0845
-8.09652
-8.10661
-8.1154
-8.12312
-8.13014
-8.13681
-8.14349
-8.15041
-8.15785
-8.16599
-8.17505
-8.18519
-8.19658
-8.20932
-8.22355
-8.23932
-8.25672
-8.27574
-8.29641
-8.31869
-8.34253
-8.36783
-8.39452
-8.42244
-8.45148
-8.48146
-8.51223
-8.5436
-8.57543
-8.60752
-8.63972
-8.67183
-8.7037
-8.73514
-8.766
-8.79611
-8.82533
-8.85349
-8.88045
-8.90607
-8.9302
-8.9527
-8.97344
-8.99229
-9.00912
-9.0238
-9.0362
-9.04621
-9.05372
-9.05861
-9.06078
-9.06016
-9.05666
-9.05023
-9.04082
-9.02841
-9.01299
-8.99458
-8.97321
-8.94897
-8.92195
-8.8923
-8.86017
-8.82577
-8.78931
-8.75104
-8.71124
-8.6702
-8.62823
-8.58566
-8.54281
-8.50002
-8.45761
-8.41591
-8.3752
-8.33577
-8.29786
-8.26169
-8.22742
-8.19517
-8.16499
-8.13687
-8.11072
-8.08641
-8.06354
-8.04214
-8.02149
-8.00109
-7.98025
-7.95831
-7.9345
-7.90793
-7.87763
-7.84242
-7.80112
-7.75229
-7.69459
-7.62657
-7.54686
-7.45395
-7.34638
-7.22258
-7.08105
-6.92024
-6.73866
-6.53484
-6.30739
-6.05502
-5.77653
-5.4709
-5.1372
-4.77468
-4.3827
-3.96098
-3.50946
-3.02846
-2.51856
-1.98071
-1.41623
-0.826851
-0.2147
0.417716
1.06749
1.73139
2.40588
3.08723
3.77146
4.45456
5.1325
5.8014
6.45754
7.09748
7.71816
8.31688
8.89142
9.43999
9.96122
10.4542
10.9185
11.3538
11.7606
12.1392
12.4906
12.8156
13.1153
13.3911
13.6443
13.8761
14.0881
14.2815
14.4576
14.6179
14.7635
14.8956
15.0153
15.1236
15.2215
15.3098
15.3895
15.4611
15.5255
15.5831
15.6344
15.6799
15.7199
15.7546
15.7842
15.8089
15.8286
15.843
15.8518
15.8539
15.8485
15.831
15.8079
15.7362
-8.04997
-8.05991
-8.07618
-8.08978
-8.10026
-8.10907
-8.11683
-8.12377
-8.13022
-8.13648
-8.14286
-8.14957
-8.15687
-8.1649
-8.17388
-8.18392
-8.19519
-8.20777
-8.2218
-8.23732
-8.25441
-8.27306
-8.29333
-8.31514
-8.33849
-8.36328
-8.38944
-8.41683
-8.44536
-8.47484
-8.50515
-8.53611
-8.56758
-8.59937
-8.63131
-8.66322
-8.69495
-8.72629
-8.7571
-8.7872
-8.81644
-8.84464
-8.87165
-8.89729
-8.92143
-8.94391
-8.96456
-8.98325
-8.99982
-9.01413
-9.02605
-9.03544
-9.04217
-9.04613
-9.04718
-9.04525
-9.04026
-9.03215
-9.02086
-9.00637
-8.98868
-8.96782
-8.94386
-8.9169
-8.88706
-8.85452
-8.81945
-8.78209
-8.74271
-8.70159
-8.65906
-8.61547
-8.57115
-8.52649
-8.48186
-8.43761
-8.39412
-8.35174
-8.3108
-8.27159
-8.2344
-8.19945
-8.16691
-8.13691
-8.10949
-8.08461
-8.06231
-8.04217
-8.02421
-8.00786
-7.9928
-7.97829
-7.96363
-7.94813
-7.931
-7.91124
-7.88794
-7.85974
-7.82556
-7.78377
-7.73318
-7.67206
-7.59924
-7.51294
-7.41191
-7.29432
-7.15887
-7.00374
-6.82766
-6.62887
-6.40617
-6.15805
-5.88348
-5.58123
-5.25047
-4.89022
-4.5
-4.07936
-3.62835
-3.14717
-2.6365
-2.09724
-1.53077
-0.93883
-0.323566
0.312444
0.96631
1.63471
2.3141
3.00057
3.6901
4.37853
5.06178
5.73583
6.39688
7.04147
7.66644
8.26912
8.84723
9.399
9.92307
10.4185
10.8849
11.3221
11.7305
12.1106
12.4632
12.7893
13.0901
13.3669
13.621
13.8537
14.0666
14.2609
14.438
14.5992
14.7457
14.8787
14.9993
15.1085
15.2074
15.2967
15.3772
15.4497
15.5148
15.5731
15.6251
15.671
15.7113
15.7462
15.7757
15.8
15.819
15.8323
15.8395
15.8394
15.8312
15.8105
15.7839
15.7092
-8.06465
-8.07273
-8.08574
-8.09685
-8.10542
-8.11257
-8.11888
-8.12462
-8.13008
-8.13551
-8.14119
-8.14731
-8.15409
-8.16164
-8.17016
-8.17974
-8.19053
-8.2026
-8.21608
-8.231
-8.24745
-8.26543
-8.28497
-8.30604
-8.32863
-8.35266
-8.37808
-8.40477
-8.43264
-8.46153
-8.49131
-8.52181
-8.55289
-8.58434
-8.61604
-8.64775
-8.67936
-8.71063
-8.74143
-8.77155
-8.80083
-8.82907
-8.85613
-8.88179
-8.9059
-8.92828
-8.94877
-8.96719
-8.98339
-8.99721
-9.00847
-9.01705
-9.02279
-9.02557
-9.02525
-9.02175
-9.01496
-9.00484
-8.99131
-8.97439
-8.95405
-8.93038
-8.90345
-8.87338
-8.84032
-8.80447
-8.76606
-8.7254
-8.68276
-8.63853
-8.59304
-8.54671
-8.4999
-8.45308
-8.4066
-8.36091
-8.31644
-8.27348
-8.23251
-8.19373
-8.15757
-8.12411
-8.09369
-8.06628
-8.04202
-8.02095
-8.00278
-7.98749
-7.97462
-7.96393
-7.9548
-7.94651
-7.93838
-7.92964
-7.91941
-7.90675
-7.89051
-7.86955
-7.84245
-7.80787
-7.76421
-7.71007
-7.64388
-7.56418
-7.46938
-7.35795
-7.22824
-7.07871
-6.90776
-6.71386
-6.49556
-6.25152
-5.98053
-5.68145
-5.35327
-4.9951
-4.60632
-4.18661
-3.73594
-3.25458
-2.74316
-2.20264
-1.63439
-1.04014
-0.422053
0.217302
0.87496
1.54756
2.23144
2.92258