/*--------------------------------*- C++ -*----------------------------------*\
| =========                 |                                                 |
| \\      /  F ield         | OpenFOAM: The Open Source CFD Toolbox           |
|  \\    /   O peration     | Version:  v2006                                 |
|   \\  /    A nd           | Website:  www.openfoam.com                      |
|    \\/     M anipulation  |                                                 |
\*---------------------------------------------------------------------------*/
FoamFile
{
    version     2.0;
    format      ascii;
    class       surfaceScalarField;
    location    "100";
    object      phi;
}
// * * * * * * * * * * * * * * * * * * * * * * * * * * * * * * * * * * * * * //

dimensions      [0 3 -1 0 0 0 0];
oriented        oriented;


internalField   nonuniform List<scalar> 
24170
(
3.11513e-06
7.32779e-08
3.01302e-06
1.02113e-07
2.91759e-06
9.5421e-08
2.82648e-06
9.11136e-08
2.74055e-06
8.5921e-08
2.66313e-06
7.74171e-08
2.59535e-06
6.77756e-08
2.53658e-06
5.87679e-08
2.48571e-06
5.08709e-08
2.44165e-06
4.40567e-08
2.40345e-06
3.81982e-08
2.37031e-06
3.31446e-08
2.34156e-06
2.87447e-08
2.31669e-06
2.48648e-08
2.29544e-06
2.12535e-08
2.27737e-06
1.80638e-08
2.26251e-06
1.48641e-08
1.12419e-08
2.25126e-06
3.46866e-06
2.18663e-08
3.48679e-06
8.39874e-08
3.49347e-06
8.87338e-08
3.49237e-06
9.22109e-08
3.48442e-06
9.38756e-08
3.47086e-06
9.09744e-08
3.453e-06
8.56364e-08
3.43204e-06
7.97214e-08
3.4091e-06
7.38123e-08
3.38509e-06
6.80624e-08
3.36073e-06
6.25634e-08
3.33651e-06
5.73592e-08
3.31283e-06
5.24264e-08
3.28995e-06
4.774e-08
3.26809e-06
4.31171e-08
3.24748e-06
3.86732e-08
3.22882e-06
3.35152e-08
2.67425e-08
3.21332e-06
3.66802e-06
1.63677e-08
3.68033e-06
7.16762e-08
3.69005e-06
7.90106e-08
3.7001e-06
8.21576e-08
3.70925e-06
8.47222e-08
3.71639e-06
8.38306e-08
3.72142e-06
8.0609e-08
3.72453e-06
7.66016e-08
3.72598e-06
7.23617e-08
3.72601e-06
6.80271e-08
3.72489e-06
6.36873e-08
3.72284e-06
5.94056e-08
3.72008e-06
5.51869e-08
3.71681e-06
5.10074e-08
3.71318e-06
4.67435e-08
3.70955e-06
4.23054e-08
3.70592e-06
3.71431e-08
3.06485e-08
3.70201e-06
3.92496e-06
1.67998e-08
3.93558e-06
6.10506e-08
3.94317e-06
7.14229e-08
3.95023e-06
7.50971e-08
3.95696e-06
7.79912e-08
3.96281e-06
7.79795e-08
3.96784e-06
7.55774e-08
3.97225e-06
7.21921e-08
3.97613e-06
6.84772e-08
3.97955e-06
6.4611e-08
3.98255e-06
6.06799e-08
3.98521e-06
5.67445e-08
3.98759e-06
5.28123e-08
3.98974e-06
4.8852e-08
3.99173e-06
4.47567e-08
3.99364e-06
4.0396e-08
3.9953e-06
3.54781e-08
2.9654e-08
3.99629e-06
4.20773e-06
1.61993e-08
4.21611e-06
5.2664e-08
4.22231e-06
6.52206e-08
4.22784e-06
6.95706e-08
4.23333e-06
7.2495e-08
4.23842e-06
7.2887e-08
4.24302e-06
7.09746e-08
4.24723e-06
6.79796e-08
4.25113e-06
6.45829e-08
4.25475e-06
6.09887e-08
4.25814e-06
5.72848e-08
4.26135e-06
5.35311e-08
4.26442e-06
4.97408e-08
4.26739e-06
4.58843e-08
4.27027e-06
4.18759e-08
4.27306e-06
3.76065e-08
4.27562e-06
3.29143e-08
2.76309e-08
4.27764e-06
4.51043e-06
1.48588e-08
4.51715e-06
4.5938e-08
4.52289e-06
5.94813e-08
4.52807e-06
6.43948e-08
4.53326e-06
6.73034e-08
4.53818e-06
6.79627e-08
4.54269e-06
6.64679e-08
4.54683e-06
6.38356e-08
4.55069e-06
6.07249e-08
4.55431e-06
5.73621e-08
4.55775e-06
5.38439e-08
4.56105e-06
5.02347e-08
4.56423e-06
4.65565e-08
4.56733e-06
4.27881e-08
4.57033e-06
3.88694e-08
4.57322e-06
3.47235e-08
4.57586e-06
3.02697e-08
2.54532e-08
4.57804e-06
4.83415e-06
1.34249e-08
4.83994e-06
4.0153e-08
4.84561e-06
5.38096e-08
4.85077e-06
5.92298e-08
4.85589e-06
6.21844e-08
4.86078e-06
6.3064e-08
4.86531e-06
6.19401e-08
4.8695e-06
5.96478e-08
4.87341e-06
5.68076e-08
4.87711e-06
5.36633e-08
4.88063e-06
5.03236e-08
4.884e-06
4.68579e-08
4.88726e-06
4.32982e-08
4.89041e-06
3.96355e-08
4.89344e-06
3.58355e-08
4.89631e-06
3.18536e-08
4.89892e-06
2.76654e-08
2.32826e-08
4.90109e-06
5.18096e-06
1.20428e-08
5.18609e-06
3.50301e-08
5.19165e-06
4.82452e-08
5.19683e-06
5.40486e-08
5.20195e-06
5.70668e-08
5.20689e-06
5.81144e-08
5.21152e-06
5.73117e-08
5.21583e-06
5.53361e-08
5.21988e-06
5.27582e-08
5.22371e-06
4.98323e-08
5.22736e-06
4.66776e-08
5.23084e-06
4.33689e-08
5.23419e-06
3.9948e-08
5.23741e-06
3.642e-08
5.24047e-06
3.27739e-08
5.24333e-06
2.89938e-08
5.2459e-06
2.50908e-08
2.11059e-08
5.24808e-06
5.55268e-06
1.06972e-08
5.55724e-06
3.04739e-08
5.56259e-06
4.28908e-08
5.56776e-06
4.88782e-08
5.57289e-06
5.19295e-08
5.57792e-06
5.30866e-08
5.58268e-06
5.25515e-08
5.58715e-06
5.08671e-08
5.59136e-06
4.85431e-08
5.59535e-06
4.58381e-08
5.59915e-06
4.28787e-08
5.60277e-06
3.97449e-08
5.60623e-06
3.64871e-08
5.60953e-06
3.31249e-08
5.61263e-06
2.96664e-08
5.61551e-06
2.61191e-08
5.61808e-06
2.25135e-08
1.8903e-08
5.62028e-06
5.95108e-06
9.39457e-09
5.95514e-06
2.64081e-08
5.96024e-06
3.77984e-08
5.96536e-06
4.37535e-08
5.9705e-06
4.67879e-08
5.97559e-06
4.79999e-08
5.98046e-06
4.76744e-08
5.98508e-06
4.6248e-08
5.98946e-06
4.41638e-08
5.99362e-06
4.16776e-08
5.99758e-06
3.89213e-08
6.00134e-06
3.59788e-08
6.00492e-06
3.29072e-08
6.0083e-06
2.97392e-08
6.01147e-06
2.64976e-08
6.01438e-06
2.32061e-08
6.01699e-06
1.99048e-08
1.66501e-08
6.01924e-06
6.37805e-06
8.15561e-09
6.38171e-06
2.27484e-08
6.38653e-06
3.2977e-08
6.39158e-06
3.87012e-08
6.3967e-06
4.16604e-08
6.40182e-06
4.28799e-08
6.40679e-06
4.2706e-08
6.41154e-06
4.1499e-08
6.41606e-06
3.96366e-08
6.42038e-06
3.73637e-08
6.42448e-06
3.48151e-08
6.42838e-06
3.2077e-08
6.43208e-06
2.92118e-08
6.43555e-06
2.62612e-08
6.43879e-06
2.32594e-08
6.44176e-06
2.02392e-08
6.44442e-06
1.72446e-08
1.43282e-08
6.44674e-06
5.74183e-06
7.1603e-09
5.74465e-06
1.9926e-08
5.74851e-06
2.91127e-08
5.75271e-06
3.45035e-08
5.75702e-06
3.73498e-08
5.76135e-06
3.85445e-08
5.7656e-06
3.8456e-08
5.7697e-06
3.74031e-08
5.77362e-06
3.57134e-08
5.77736e-06
3.36158e-08
5.78093e-06
3.12445e-08
5.78432e-06
2.86874e-08
5.78752e-06
2.6008e-08
5.79053e-06
2.32558e-08
5.79332e-06
2.04684e-08
5.79587e-06
1.76852e-08
5.79817e-06
1.49473e-08
1.23062e-08
5.80019e-06
6.99922e-06
6.09351e-09
7.00222e-06
1.69253e-08
7.00642e-06
2.4916e-08
7.0111e-06
2.98131e-08
7.016e-06
3.24556e-08
7.02096e-06
3.35778e-08
7.02587e-06
3.3545e-08
7.03064e-06
3.26359e-08
7.03523e-06
3.11257e-08
7.03962e-06
2.9222e-08
7.04381e-06
2.70552e-08
7.04778e-06
2.47119e-08
7.05153e-06
2.22579e-08
7.05504e-06
1.97437e-08
7.05829e-06
1.72131e-08
7.06127e-06
1.47045e-08
7.06396e-06
1.22591e-08
9.91812e-09
7.06635e-06
8.53198e-06
4.96348e-09
8.53512e-06
1.37756e-08
8.53962e-06
2.04187e-08
8.54479e-06
2.46416e-08
8.55028e-06
2.69643e-08
8.55591e-06
2.7947e-08
8.56153e-06
2.79261e-08
8.56702e-06
2.71386e-08
8.57234e-06
2.58089e-08
8.57744e-06
2.41154e-08
8.58231e-06
2.21813e-08
8.58694e-06
2.00881e-08
8.59129e-06
1.79006e-08
8.59537e-06
1.5669e-08
8.59914e-06
1.34376e-08
8.6026e-06
1.12436e-08
8.60573e-06
9.12253e-09
7.10912e-09
8.60854e-06
1.04004e-05
3.78221e-09
1.04037e-05
1.05e-08
1.04084e-05
1.56484e-08
1.04141e-05
1.90073e-08
1.04202e-05
2.08697e-08
1.04265e-05
2.16278e-08
1.04328e-05
2.15583e-08
1.04391e-05
2.08588e-08
1.04452e-05
1.97007e-08
1.04511e-05
1.82316e-08
1.04567e-05
1.65554e-08
1.04621e-05
1.47503e-08
1.04671e-05
1.28711e-08
1.04718e-05
1.09677e-08
1.04762e-05
9.07745e-09
1.04802e-05
7.23672e-09
1.04838e-05
5.47211e-09
3.8112e-09
1.04871e-05
1.2678e-05
2.55744e-09
1.26814e-05
7.10049e-09
1.26864e-05
1.06127e-08
1.26925e-05
1.29173e-08
1.26992e-05
1.41615e-08
1.27063e-05
1.45881e-08
1.27134e-05
1.43984e-08
1.27205e-05
1.37396e-08
1.27275e-05
1.27373e-08
1.27342e-05
1.14974e-08
1.27407e-05
1.0105e-08
1.27468e-05
8.62025e-09
1.27526e-05
7.09234e-09
1.2758e-05
5.55804e-09
1.2763e-05
4.05188e-09
1.27677e-05
2.59907e-09
1.27719e-05
1.22353e-09
-6.044e-11
1.27758e-05
1.54545e-05
1.2826e-09
1.5458e-05
3.53899e-09
1.54634e-05
5.26469e-09
1.54699e-05
6.32695e-09
1.54773e-05
6.78353e-09
1.54852e-05
6.75801e-09
1.54932e-05
6.3652e-09
1.55012e-05
5.6951e-09
1.55091e-05
4.82359e-09
1.55168e-05
3.81594e-09
1.55242e-05
2.72577e-09
1.55312e-05
1.59471e-09
1.55379e-05
4.5477e-10
1.55441e-05
-6.68144e-10
1.55499e-05
-1.75236e-09
1.55553e-05
-2.77979e-09
1.55602e-05
-3.73632e-09
-4.61372e-09
1.55648e-05
1.8839e-05
-7.93387e-11
1.88428e-05
-3.00193e-10
1.88487e-05
-5.59694e-10
1.88559e-05
-9.44426e-10
1.88642e-05
-1.45087e-09
1.8873e-05
-2.05449e-09
1.88821e-05
-2.7326e-09
1.88912e-05
-3.46292e-09
1.89003e-05
-4.22324e-09
1.89091e-05
-4.99349e-09
1.89176e-05
-5.75729e-09
1.89257e-05
-6.50026e-09
1.89333e-05
-7.21093e-09
1.89405e-05
-7.87952e-09
1.89473e-05
-8.49819e-09
1.89535e-05
-9.05999e-09
1.89594e-05
-9.55964e-09
-9.99624e-09
1.89647e-05
2.29649e-05
-1.62668e-09
2.29693e-05
-4.69952e-09
2.2976e-05
-7.27912e-09
2.29844e-05
-9.38088e-09
2.2994e-05
-1.10341e-08
2.30043e-05
-1.23306e-08
2.30149e-05
-1.33584e-08
2.30256e-05
-1.41747e-08
2.30362e-05
-1.48133e-08
2.30465e-05
-1.53117e-08
2.30565e-05
-1.56974e-08
2.3066e-05
-1.59943e-08
2.3075e-05
-1.62135e-08
2.30834e-05
-1.6367e-08
2.30914e-05
-1.64599e-08
2.30988e-05
-1.65002e-08
2.31058e-05
-1.64902e-08
-1.64377e-08
2.31122e-05
1.68119e-05
-2.81991e-09
1.68153e-05
-8.06711e-09
1.68204e-05
-1.24403e-08
1.68269e-05
-1.58221e-08
1.68341e-05
-1.82699e-08
1.68418e-05
-2.00174e-08
1.68497e-05
-2.12633e-08
1.68576e-05
-2.21038e-08
1.68654e-05
-2.2621e-08
1.6873e-05
-2.2888e-08
1.68803e-05
-2.29756e-08
1.68872e-05
-2.29254e-08
1.68938e-05
-2.27745e-08
1.68999e-05
-2.25421e-08
1.69057e-05
-2.22513e-08
1.69111e-05
-2.19112e-08
1.69162e-05
-2.15356e-08
-2.11295e-08
1.69209e-05
1.46357e-05
-3.94277e-09
1.46389e-05
-1.12897e-08
1.46439e-05
-1.742e-08
1.465e-05
-2.19417e-08
1.46567e-05
-2.50084e-08
1.46638e-05
-2.70964e-08
1.4671e-05
-2.84799e-08
1.46782e-05
-2.92826e-08
1.46852e-05
-2.96277e-08
1.4692e-05
-2.96483e-08
1.46984e-05
-2.94365e-08
1.47046e-05
-2.90584e-08
1.47104e-05
-2.85588e-08
1.47158e-05
-2.79762e-08
1.47209e-05
-2.73362e-08
1.47256e-05
-2.66605e-08
1.47301e-05
-2.5961e-08
-2.52509e-08
1.47342e-05
1.27411e-05
-4.95698e-09
1.27443e-05
-1.44934e-08
1.27494e-05
-2.24775e-08
1.27554e-05
-2.79112e-08
1.27617e-05
-3.13768e-08
1.27684e-05
-3.37219e-08
1.27751e-05
-3.51925e-08
1.27817e-05
-3.58888e-08
1.27881e-05
-3.60126e-08
1.27942e-05
-3.57545e-08
1.28e-05
-3.52332e-08
1.28054e-05
-3.45264e-08
1.28106e-05
-3.36914e-08
1.28154e-05
-3.27778e-08
1.28199e-05
-3.18162e-08
1.2824e-05
-3.08333e-08
1.28279e-05
-2.98399e-08
-2.88493e-08
1.28315e-05
1.10917e-05
-5.72909e-09
1.10949e-05
-1.77234e-08
1.11003e-05
-2.78234e-08
1.11062e-05
-3.38248e-08
1.11122e-05
-3.74373e-08
1.11185e-05
-3.99543e-08
1.11247e-05
-4.14363e-08
1.11308e-05
-4.19675e-08
1.11366e-05
-4.18433e-08
1.11422e-05
-4.13e-08
1.11474e-05
-4.0468e-08
1.11523e-05
-3.94351e-08
1.11569e-05
-3.8277e-08
1.11612e-05
-3.70475e-08
1.11651e-05
-3.57896e-08
1.11688e-05
-3.45251e-08
1.11723e-05
-3.32757e-08
-3.20512e-08
1.11755e-05
9.65563e-06
-6.14568e-09
9.659e-06
-2.10933e-08
9.66454e-06
-3.33694e-08
9.67027e-06
-3.95535e-08
9.6761e-06
-4.32727e-08
9.68206e-06
-4.59154e-08
9.6879e-06
-4.7273e-08
9.69348e-06
-4.75447e-08
9.69877e-06
-4.71432e-08
9.70379e-06
-4.63157e-08
9.7085e-06
-4.51832e-08
9.71291e-06
-4.38431e-08
9.71702e-06
-4.23813e-08
9.72083e-06
-4.08641e-08
9.72437e-06
-3.93325e-08
9.72766e-06
-3.78146e-08
9.73071e-06
-3.63225e-08
-3.4853e-08
9.73351e-06
8.40494e-06
-5.72885e-09
8.40928e-06
-2.54418e-08
8.41466e-06
-3.87449e-08
8.41971e-06
-4.4606e-08
8.42521e-06
-4.87745e-08
8.43099e-06
-5.1697e-08
8.43661e-06
-5.28982e-08
8.44193e-06
-5.28676e-08
8.44695e-06
-5.21589e-08
8.45165e-06
-5.10213e-08
8.45604e-06
-4.95708e-08
8.46011e-06
-4.79167e-08
8.46388e-06
-4.61547e-08
8.46737e-06
-4.43561e-08
8.47061e-06
-4.2565e-08
8.4736e-06
-4.08112e-08
8.4764e-06
-3.91184e-08
-3.75003e-08
8.47904e-06
7.31364e-06
-2.08321e-09
7.32067e-06
-3.24773e-08
7.32644e-06
-4.45099e-08
7.33119e-06
-4.93647e-08
7.33651e-06
-5.40916e-08
7.3421e-06
-5.72868e-08
7.34755e-06
-5.83507e-08
7.35276e-06
-5.8086e-08
7.35772e-06
-5.71184e-08
7.36238e-06
-5.56801e-08
7.36671e-06
-5.39062e-08
7.37072e-06
-5.19239e-08
7.37441e-06
-4.98496e-08
7.37781e-06
-4.77565e-08
7.38094e-06
-4.56944e-08
7.38382e-06
-4.3694e-08
7.38647e-06
-4.17658e-08
-3.98614e-08
7.38883e-06
6.36046e-06
7.52077e-09
6.37027e-06
-4.22842e-08
6.37812e-06
-5.23625e-08
6.38514e-06
-5.6385e-08
6.3922e-06
-6.11606e-08
6.39875e-06
-6.38385e-08
6.40467e-06
-6.42687e-08
6.41014e-06
-6.35548e-08
6.41525e-06
-6.22313e-08
6.42e-06
-6.04336e-08
6.42438e-06
-5.8285e-08
6.42838e-06
-5.59311e-08
6.43203e-06
-5.34978e-08
6.43533e-06
-5.10622e-08
6.43832e-06
-4.86814e-08
6.44102e-06
-4.63972e-08
6.4435e-06
-4.42418e-08
-4.22407e-08
6.44588e-06
5.53916e-06
1.38199e-08
5.5475e-06
-5.06192e-08
5.55581e-06
-6.06789e-08
5.56603e-06
-6.66044e-08
5.57719e-06
-7.23189e-08
5.58763e-06
-7.42851e-08
5.59679e-06
-7.34294e-08
5.60468e-06
-7.14493e-08
5.61138e-06
-6.89303e-08
5.61696e-06
-6.60114e-08
5.62149e-06
-6.28169e-08
5.62506e-06
-5.95026e-08
5.62776e-06
-5.62036e-08
5.62969e-06
-5.29934e-08
5.63093e-06
-4.99235e-08
5.63159e-06
-4.70637e-08
5.63177e-06
-4.4422e-08
-4.20968e-08
5.63163e-06
4.87157e-06
-3.01458e-08
4.88647e-06
-6.55179e-08
4.89719e-06
-7.14057e-08
4.90595e-06
-7.53589e-08
4.91296e-06
-7.9335e-08
4.9172e-06
-7.85267e-08
4.91798e-06
-7.42142e-08
4.91519e-06
-6.86589e-08
4.90913e-06
-6.28776e-08
4.90033e-06
-5.72104e-08
4.88934e-06
-5.18295e-08
4.87667e-06
-4.68354e-08
4.86277e-06
-4.23084e-08
4.84802e-06
-3.82402e-08
4.83271e-06
-3.46168e-08
4.8171e-06
-3.14605e-08
4.80147e-06
-2.87867e-08
-2.7094e-08
4.78647e-06
4.17253e-06
4.10701e-06
4.03561e-06
3.96025e-06
3.88091e-06
3.80238e-06
3.72817e-06
3.65951e-06
3.59663e-06
3.53942e-06
3.48759e-06
3.44076e-06
3.39845e-06
3.36021e-06
3.32559e-06
3.29413e-06
3.26534e-06
3.23825e-06
1.46882e-08
-1.48118e-08
4.0813e-08
-2.6262e-08
6.78561e-08
-2.7195e-08
9.17547e-08
-2.39983e-08
1.10298e-07
-1.86814e-08
1.22607e-07
-1.24008e-08
1.28222e-07
-5.75937e-09
1.27225e-07
9.03613e-10
1.19863e-07
7.2116e-09
1.07008e-07
1.27612e-08
8.94559e-08
1.73937e-08
6.82532e-08
2.11052e-08
4.4081e-08
2.4002e-08
1.77046e-08
2.62712e-08
-1.05727e-08
2.80929e-08
-4.07568e-08
3.00821e-08
-7.33866e-08
3.24587e-08
-1.08386e-07
3.4917e-08
-1.46114e-07
3.75814e-08
-1.86645e-07
4.04669e-08
-2.30291e-07
4.35168e-08
-2.76986e-07
4.66471e-08
-3.26859e-07
4.97623e-08
-3.79681e-07
5.27855e-08
-4.3541e-07
5.56247e-08
-4.93639e-07
5.81923e-08
-5.54158e-07
6.04113e-08
-6.16431e-07
6.22321e-08
-6.80147e-07
6.36106e-08
-7.4472e-07
6.45263e-08
-8.09804e-07
6.49735e-08
-8.74836e-07
6.49792e-08
-9.39522e-07
6.45779e-08
-1.00341e-06
6.38246e-08
-1.06629e-06
6.27706e-08
-1.12783e-06
6.14788e-08
-1.18794e-06
6.00004e-08
-1.24639e-06
5.83939e-08
-1.30319e-06
5.67027e-08
-1.35821e-06
5.49742e-08
-1.41153e-06
5.32377e-08
-1.4631e-06
5.15263e-08
-1.51304e-06
4.98558e-08
-1.56133e-06
4.82474e-08
-1.60811e-06
4.67062e-08
-1.6534e-06
4.52444e-08
-1.69733e-06
4.38602e-08
-1.73993e-06
4.25602e-08
-1.78134e-06
4.13382e-08
-1.82158e-06
4.01968e-08
-1.86078e-06
3.9126e-08
-1.89895e-06
3.81267e-08
-1.93621e-06
3.71887e-08
-1.97258e-06
3.63126e-08
-2.00815e-06
3.54882e-08
-2.04294e-06
3.47168e-08
-2.07701e-06
3.39893e-08
-2.11041e-06
3.33079e-08
-2.14316e-06
3.2664e-08
-2.17532e-06
3.20604e-08
-2.2069e-06
3.14901e-08
-2.23796e-06
3.09562e-08
-2.26851e-06
3.04533e-08
-2.2986e-06
2.99845e-08
-2.32824e-06
2.95456e-08
-2.35748e-06
2.91397e-08
-2.38634e-06
2.87643e-08
-2.41486e-06
2.8422e-08
-2.44306e-06
2.81122e-08
-2.47099e-06
2.7837e-08
-2.49866e-06
2.75976e-08
-2.52615e-06
2.73951e-08
-2.55344e-06
2.7231e-08
-2.58065e-06
2.71032e-08
-2.60773e-06
2.70146e-08
-2.63481e-06
2.69604e-08
-2.66183e-06
2.69451e-08
-2.68892e-06
2.69645e-08
-2.71602e-06
2.70212e-08
-2.74325e-06
2.71028e-08
-2.77054e-06
2.72141e-08
-2.79801e-06
2.73429e-08
-2.82556e-06
2.74918e-08
-2.85333e-06
2.76375e-08
-2.88117e-06
2.7783e-08
-2.90918e-06
2.79072e-08
-2.93722e-06
2.80216e-08
-2.96535e-06
2.81069e-08
-2.99344e-06
2.81671e-08
-3.02147e-06
2.81863e-08
-3.04946e-06
2.81131e-08
-3.07728e-06
2.79302e-08
-3.10482e-06
2.76171e-08
-3.1319e-06
2.71643e-08
-3.15838e-06
2.65503e-08
-3.18408e-06
2.57591e-08
-3.20881e-06
2.47669e-08
-3.23233e-06
2.35578e-08
-3.25445e-06
2.21062e-08
-3.27486e-06
2.03845e-08
-3.2933e-06
1.8356e-08
-3.30944e-06
1.59855e-08
-3.32289e-06
1.32428e-08
-3.33323e-06
1.00489e-08
-3.33997e-06
6.42082e-09
-3.34257e-06
2.23796e-09
-3.34119e-06
-1.70451e-09
-3.33673e-06
-4.79074e-09
-3.32849e-06
-8.5178e-09
-3.31618e-06
-1.25869e-08
-3.29989e-06
-1.64927e-08
-3.27921e-06
-2.08997e-08
-3.25391e-06
-2.54349e-08
-3.22367e-06
-3.03924e-08
-3.18836e-06
-3.53821e-08
-3.14834e-06
-4.01049e-08
-3.10304e-06
-4.53157e-08
-3.05225e-06
-5.07948e-08
-2.99603e-06
-5.61342e-08
-2.93446e-06
-6.15264e-08
-2.86754e-06
-6.68858e-08
-2.79519e-06
-7.24055e-08
-2.71738e-06
-7.78603e-08
-2.63418e-06
-8.32527e-08
-2.54564e-06
-8.84942e-08
-2.45196e-06
-9.35941e-08
-2.35329e-06
-9.84872e-08
-2.24989e-06
-1.03172e-07
-2.142e-06
-1.07587e-07
-2.02996e-06
-1.11723e-07
-1.91407e-06
-1.15523e-07
-1.79472e-06
-1.18977e-07
-1.67227e-06
-1.22044e-07
-1.54717e-06
-1.24711e-07
-1.41981e-06
-1.26952e-07
-1.29067e-06
-1.28761e-07
-1.16016e-06
-1.30138e-07
-1.02874e-06
-1.31089e-07
-8.96819e-07
-1.31631e-07
-7.6482e-07
-1.3178e-07
-6.33074e-07
-1.31577e-07
-5.02027e-07
-1.30944e-07
-3.72057e-07
-1.29909e-07
-2.43062e-07
-1.2899e-07
-1.14434e-07
-1.28653e-07
1.49077e-08
-1.29404e-07
1.43874e-07
-1.29039e-07
2.69856e-07
-1.26071e-07
3.91887e-07
-1.2212e-07
5.09525e-07
-1.17735e-07
6.2257e-07
-1.13138e-07
7.3092e-07
-1.08445e-07
8.3455e-07
-1.0372e-07
9.33483e-07
-9.90209e-08
1.0278e-06
-9.44037e-08
1.1176e-06
-8.98725e-08
1.20297e-06
-8.54464e-08
1.28407e-06
-8.11704e-08
1.36107e-06
-7.70559e-08
1.43409e-06
-7.30733e-08
1.50327e-06
-6.92326e-08
1.56877e-06
-6.55421e-08
1.63074e-06
-6.20199e-08
1.68937e-06
-5.86542e-08
1.74476e-06
-5.54266e-08
1.79706e-06
-5.23245e-08
1.84639e-06
-4.93501e-08
1.89286e-06
-4.64847e-08
1.93655e-06
-4.37102e-08
1.97754e-06
-4.09998e-08
2.01583e-06
-3.83149e-08
2.05141e-06
-3.55837e-08
2.08409e-06
-3.27037e-08
2.11358e-06
-2.95025e-08
2.13921e-06
-2.5643e-08
2.15971e-06
-2.0527e-08
2.17149e-06
-1.18068e-08
2.16575e-06
5.70409e-09
2.12091e-06
4.48114e-08
1.12113e-07
2.00879e-06
2.74737e-08
-4.23691e-08
4.66027e-08
-4.54663e-08
5.72064e-08
-3.78587e-08
6.20749e-08
-2.89084e-08
6.2519e-08
-1.91729e-08
5.90631e-08
-8.98231e-09
5.19289e-08
1.32746e-09
4.1301e-08
1.14938e-08
2.71701e-08
2.1294e-08
9.38618e-09
3.05062e-08
-1.22158e-08
3.89465e-08
-3.76834e-08
4.6534e-08
-6.70409e-08
5.33126e-08
-1.00238e-07
5.94319e-08
-1.37307e-07
6.51172e-08
-1.77882e-07
7.06221e-08
-2.21592e-07
7.6126e-08
-2.68407e-07
8.1699e-08
-3.18227e-07
8.73611e-08
-3.70853e-07
9.30651e-08
-4.26083e-07
9.87085e-08
-4.83617e-07
1.04155e-07
-5.43149e-07
1.09258e-07
-6.04265e-07
1.13879e-07
-6.66567e-07
1.1789e-07
-7.29588e-07
1.21188e-07
-7.9292e-07
1.23704e-07
-8.5612e-07
1.25405e-07
-9.18836e-07
1.26286e-07
-9.80706e-07
1.26366e-07
-1.04148e-06
1.257e-07
-1.1009e-06
1.24368e-07
-1.15883e-06
1.22467e-07
-1.21514e-06
1.20098e-07
-1.26978e-06
1.17363e-07
-1.32269e-06
1.14357e-07
-1.37391e-06
1.11168e-07
-1.42342e-06
1.07874e-07
-1.4713e-06
1.04543e-07
-1.51759e-06
1.0123e-07
-1.56237e-06
9.79815e-08
-1.60571e-06
9.48309e-08
-1.64769e-06
9.18021e-08
-1.68838e-06
8.89126e-08
-1.72788e-06
8.61709e-08
-1.76625e-06
8.35827e-08
-1.80357e-06
8.11467e-08
-1.8399e-06
7.88612e-08
-1.87531e-06
7.67194e-08
-1.90986e-06
7.47158e-08
-1.94361e-06
7.28407e-08
-1.9766e-06
7.10869e-08
-2.0089e-06
6.94443e-08
-2.04053e-06
6.79059e-08
-2.07154e-06
6.6462e-08
-2.10198e-06
6.51071e-08
-2.13187e-06
6.38328e-08
-2.16124e-06
6.26354e-08
-2.19014e-06
6.15078e-08
-2.21858e-06
6.04477e-08
-2.24659e-06
5.94499e-08
-2.27421e-06
5.85139e-08
-2.30144e-06
5.7636e-08
-2.32833e-06
5.68168e-08
-2.3549e-06
5.60538e-08
-2.38117e-06
5.53491e-08
-2.40716e-06
5.47013e-08
-2.43291e-06
5.41132e-08
-2.45843e-06
5.35845e-08
-2.48377e-06
5.31177e-08
-2.50893e-06
5.27126e-08
-2.53395e-06
5.23706e-08
-2.55886e-06
5.20909e-08
-2.58368e-06
5.18732e-08
-2.60843e-06
5.17144e-08
-2.63314e-06
5.16125e-08
-2.65781e-06
5.15659e-08
-2.68248e-06
5.15697e-08
-2.70713e-06
5.16172e-08
-2.73179e-06
5.16986e-08
-2.75644e-06
5.18067e-08
-2.78109e-06
5.19276e-08
-2.80569e-06
5.20483e-08
-2.83027e-06
5.21481e-08
-2.85474e-06
5.22129e-08
-2.87911e-06
5.22222e-08
-2.90328e-06
5.21627e-08
-2.9272e-06
5.20128e-08
-2.95073e-06
5.17608e-08
-2.97383e-06
5.13573e-08
-2.9964e-06
5.07635e-08
-3.01834e-06
4.99373e-08
-3.03953e-06
4.88465e-08
-3.05979e-06
4.74733e-08
-3.07899e-06
4.57818e-08
-3.09695e-06
4.37492e-08
-3.11351e-06
4.13382e-08
-3.12847e-06
3.85311e-08
-3.14168e-06
3.52951e-08
-3.15295e-06
3.1619e-08
-3.16215e-06
2.74765e-08
-3.16914e-06
2.28663e-08
-3.17385e-06
1.7779e-08
-3.17622e-06
1.22194e-08
-3.17625e-06
6.21036e-09
-3.17402e-06
-2.22568e-10
-3.16903e-06
-6.93507e-09
-3.1602e-06
-1.38258e-08
-3.14768e-06
-2.12338e-08
-3.1313e-06
-2.9132e-08
-3.11055e-06
-3.73994e-08
-3.08542e-06
-4.61534e-08
-3.05565e-06
-5.53175e-08
-3.02118e-06
-6.49389e-08
-2.98179e-06
-7.48353e-08
-2.93705e-06
-8.4881e-08
-2.88705e-06
-9.53368e-08
-2.83179e-06
-1.06041e-07
-2.77106e-06
-1.16823e-07
-2.70477e-06
-1.27768e-07
-2.6329e-06
-1.3876e-07
-2.55551e-06
-1.49833e-07
-2.47258e-06
-1.60844e-07
-2.38412e-06
-1.71734e-07
-2.29024e-06
-1.82366e-07
-2.19108e-06
-1.92694e-07
-2.08683e-06
-2.02631e-07
-1.97775e-06
-2.12119e-07
-1.8641e-06
-2.21069e-07
-1.74621e-06
-2.29424e-07
-1.62443e-06
-2.37098e-07
-1.49916e-06
-2.44036e-07
-1.37081e-06
-2.50173e-07
-1.23983e-06
-2.55469e-07
-1.10669e-06
-2.5988e-07
-9.71861e-07
-2.63393e-07
-8.35815e-07
-2.65995e-07
-6.99036e-07
-2.67708e-07
-5.61981e-07
-2.68553e-07
-4.25089e-07
-2.68578e-07
-2.88735e-07
-2.6786e-07
-1.53018e-07
-2.66625e-07
-1.79557e-08
-2.64951e-07
1.15752e-07
-2.62706e-07
2.46882e-07
-2.598e-07
3.73624e-07
-2.56183e-07
4.95723e-07
-2.51177e-07
6.14153e-07
-2.44553e-07
7.28901e-07
-2.36917e-07
8.39791e-07
-2.28683e-07
9.46684e-07
-2.20085e-07
1.04948e-06
-2.113e-07
1.14814e-06
-2.02432e-07
1.24265e-06
-1.93589e-07
1.33304e-06
-1.84845e-07
1.41936e-06
-1.76251e-07
1.5017e-06
-1.67832e-07
1.58013e-06
-1.59649e-07
1.65476e-06
-1.51721e-07
1.7257e-06
-1.44053e-07
1.79309e-06
-1.36655e-07
1.85705e-06
-1.29542e-07
1.91773e-06
-1.22725e-07
1.97525e-06
-1.16197e-07
2.02973e-06
-1.09928e-07
2.08129e-06
-1.03906e-07
2.13004e-06
-9.81198e-08
2.17608e-06
-9.25428e-08
2.2195e-06
-8.7135e-08
2.26034e-06
-8.18513e-08
2.29862e-06
-7.66077e-08
2.3343e-06
-7.1275e-08
2.36724e-06
-6.56504e-08
2.39714e-06
-5.94168e-08
2.42345e-06
-5.19722e-08
2.44519e-06
-4.22812e-08
2.46111e-06
-2.77434e-08
2.47058e-06
-3.79443e-09
2.4723e-06
4.30766e-08
1.32644e-07
2.45176e-06
1.66772e-08
-5.91128e-08
2.27655e-08
-5.16078e-08
2.23906e-08
-3.75244e-08
1.7554e-08
-2.40983e-08
9.28672e-09
-1.09356e-08
-1.86043e-09
2.14214e-09
-1.56721e-08
1.51117e-08
-3.20806e-08
2.78806e-08
-5.11483e-08
4.03349e-08
-7.30049e-08
5.23419e-08
-9.78609e-08
6.37767e-08
-1.25909e-07
7.45619e-08
-1.57314e-07
8.46932e-08
-1.92139e-07
9.4237e-08
-2.30352e-07
1.03306e-07
-2.71771e-07
1.12022e-07
-3.16148e-07
1.20479e-07
-3.63184e-07
1.28716e-07
-4.12565e-07
1.36718e-07
-4.63926e-07
1.44409e-07
-5.16913e-07
1.51673e-07
-5.71141e-07
1.58367e-07
-6.26252e-07
1.64347e-07
-6.81871e-07
1.69481e-07
-7.3767e-07
1.73665e-07
-7.93327e-07
1.76826e-07
-8.48577e-07
1.78929e-07
-9.03161e-07
1.7997e-07
-9.56888e-07
1.79987e-07
-1.0096e-06
1.79058e-07
-1.06121e-06
1.77283e-07
-1.11164e-06
1.74775e-07
-1.16085e-06
1.71652e-07
-1.20881e-06
1.68038e-07
-1.25552e-06
1.6405e-07
-1.30099e-06
1.59797e-07
-1.34522e-06
1.55376e-07
-1.38824e-06
1.50874e-07
-1.43009e-06
1.46364e-07
-1.47078e-06
1.41907e-07
-1.51037e-06
1.3755e-07
-1.54889e-06
1.33332e-07
-1.58639e-06
1.29276e-07
-1.6229e-06
1.25403e-07
-1.65847e-06
1.21721e-07
-1.69314e-06
1.18236e-07
-1.72696e-06
1.14947e-07
-1.75997e-06
1.11851e-07
-1.79222e-06
1.0894e-07
-1.82373e-06
1.06206e-07
-1.85455e-06
1.0364e-07
-1.88472e-06
1.01232e-07
-1.91427e-06
9.89696e-08
-1.94323e-06
9.68441e-08
-1.97164e-06
9.4845e-08
-1.99953e-06
9.29633e-08
-2.02691e-06
9.11905e-08
-2.05383e-06
8.95195e-08
-2.0803e-06
8.79436e-08
-2.10634e-06
8.64579e-08
-2.13199e-06
8.50578e-08
-2.15725e-06
8.37404e-08
-2.18215e-06
8.25033e-08
-2.20672e-06
8.13455e-08
-2.23096e-06
8.02658e-08
-2.25492e-06
7.92649e-08
-2.2786e-06
7.83432e-08
-2.30202e-06
7.75021e-08
-2.32521e-06
7.67428e-08
-2.3482e-06
7.60668e-08
-2.37099e-06
7.54745e-08
-2.39362e-06
7.49666e-08
-2.4161e-06
7.45422e-08
-2.43846e-06
7.41993e-08
-2.46071e-06
7.39347e-08
-2.48288e-06
7.37447e-08
-2.50498e-06
7.36239e-08
-2.52701e-06
7.35651e-08
-2.54899e-06
7.3558e-08
-2.57091e-06
7.35896e-08
-2.59279e-06
7.36462e-08
-2.61461e-06
7.37098e-08
-2.63636e-06
7.37595e-08
-2.65802e-06
7.3771e-08
-2.67956e-06
7.37202e-08
-2.70095e-06
7.35791e-08
-2.72213e-06
7.3321e-08
-2.74304e-06
7.29176e-08
-2.76359e-06
7.23329e-08
-2.78371e-06
7.15277e-08
-2.80334e-06
7.04408e-08
-2.8224e-06
6.90237e-08
-2.84076e-06
6.72413e-08
-2.85833e-06
6.50493e-08
-2.87495e-06
6.24167e-08
-2.89049e-06
5.92976e-08
-2.90481e-06
5.56626e-08
-2.91777e-06
5.14721e-08
-2.9292e-06
4.67046e-08
-2.93896e-06
4.13318e-08
-2.9469e-06
3.53372e-08
-2.95284e-06
2.87076e-08
-2.95664e-06
2.14323e-08
-2.9581e-06
1.35133e-08
-2.95702e-06
4.94422e-09
-2.95314e-06
-4.26884e-09
-2.94614e-06
-1.4117e-08
-2.93555e-06
-2.45499e-08
-2.92129e-06
-3.56479e-08
-2.90311e-06
-4.74243e-08
-2.88075e-06
-5.98665e-08
-2.85404e-06
-7.29521e-08
-2.82277e-06
-8.66636e-08
-2.78679e-06
-1.00973e-07
-2.7459e-06
-1.1578e-07
-2.69982e-06
-1.30974e-07
-2.64854e-06
-1.46632e-07
-2.59195e-06
-1.62612e-07
-2.52992e-06
-1.7882e-07
-2.46238e-06
-1.95282e-07
-2.3893e-06
-2.11856e-07
-2.31068e-06
-2.28473e-07
-2.22656e-06
-2.45009e-07
-2.13696e-06
-2.61346e-07
-2.04199e-06
-2.77331e-07
-1.94179e-06
-2.92845e-07
-1.83658e-06
-3.07774e-07
-1.7266e-06
-3.21999e-07
-1.61214e-06
-3.35406e-07
-1.49355e-06
-3.47879e-07
-1.37121e-06
-3.59306e-07
-1.24551e-06
-3.69586e-07
-1.1169e-06
-3.78632e-07
-9.85845e-07
-3.86371e-07
-8.52833e-07
-3.92749e-07
-7.18348e-07
-3.97739e-07
-5.82889e-07
-4.01331e-07
-4.46934e-07
-4.03554e-07
-3.10952e-07
-4.0445e-07
-1.7531e-07
-4.04146e-07
-4.0341e-08
-4.02774e-07
9.34123e-08
-4.00328e-07
2.25189e-07
-3.96693e-07
3.54328e-07
-3.91814e-07
4.80259e-07
-3.85713e-07
6.02402e-07
-3.7831e-07
7.20623e-07
-3.6939e-07
8.35113e-07
-3.59034e-07
9.45827e-07
-3.4763e-07
1.05267e-06
-3.35517e-07
1.15553e-06
-3.22954e-07
1.25438e-06
-3.1014e-07
1.34917e-06
-2.97227e-07
1.43992e-06
-2.84343e-07
1.52667e-06
-2.71594e-07
1.60947e-06
-2.59051e-07
1.6884e-06
-2.46767e-07
1.76355e-06
-2.348e-07
1.83503e-06
-2.23205e-07
1.90298e-06
-2.12002e-07
1.96753e-06
-2.01201e-07
2.02879e-06
-1.90807e-07
2.08691e-06
-1.80836e-07
2.14199e-06
-1.71278e-07
2.19417e-06
-1.62108e-07
2.24357e-06
-1.53302e-07
2.29029e-06
-1.44838e-07
2.33443e-06
-1.36677e-07
2.37607e-06
-1.28768e-07
2.41526e-06
-1.21038e-07
2.45203e-06
-1.13369e-07
2.48633e-06
-1.05574e-07
2.51805e-06
-9.73724e-08
2.54696e-06
-8.83234e-08
2.57264e-06
-7.76534e-08
2.59441e-06
-6.40512e-08
2.61143e-06
-4.47716e-08
2.623e-06
-1.53677e-08
2.63099e-06
3.50811e-08
1.24902e-07
2.63874e-06
2.2212e-09
-6.1393e-08
-3.72559e-09
-4.57037e-08
-1.27046e-08
-2.85769e-08
-2.41844e-08
-1.26389e-08
-3.78668e-08
2.72474e-09
-5.35768e-08
1.78362e-08
-7.12809e-08
3.2796e-08
-9.10104e-08
4.75955e-08
-1.12866e-07
6.21719e-08
-1.36973e-07
7.64352e-08
-1.63504e-07
9.02893e-08
-1.92611e-07
1.03655e-07
-2.24419e-07
1.16484e-07
-2.5896e-07
1.28765e-07
-2.96183e-07
1.40512e-07
-3.35923e-07
1.51749e-07
-3.77945e-07
1.62483e-07
-4.21937e-07
1.72696e-07
-4.67568e-07
1.82331e-07
-5.14472e-07
1.913e-07
-5.62305e-07
1.99488e-07
-6.10726e-07
2.06774e-07
-6.59437e-07
2.13039e-07
-7.08158e-07
2.18188e-07
-7.56665e-07
2.22152e-07
-8.04753e-07
2.24899e-07
-8.52279e-07
2.26433e-07
-8.99118e-07
2.26793e-07
-9.45203e-07
2.26051e-07
-9.90469e-07
2.24308e-07
-1.03489e-06
2.21683e-07
-1.07843e-06
2.183e-07
-1.12109e-06
2.1429e-07
-1.16284e-06
2.09779e-07
-1.2037e-06
2.04888e-07
-1.24365e-06
1.99729e-07
-1.2827e-06
1.94405e-07
-1.32084e-06
1.89005e-07
-1.3581e-06
1.83606e-07
-1.39448e-06
1.7827e-07
-1.42999e-06
1.73049e-07
-1.46466e-06
1.67981e-07
-1.49849e-06
1.63096e-07
-1.53151e-06
1.58413e-07
-1.56376e-06
1.53947e-07
-1.59524e-06
1.49701e-07
-1.62598e-06
1.45679e-07
-1.65603e-06
1.41876e-07
-1.68539e-06
1.38287e-07
-1.7141e-06
1.34903e-07
-1.7422e-06
1.31715e-07
-1.76969e-06
1.28711e-07
-1.79662e-06
1.2588e-07
-1.82301e-06
1.2321e-07
-1.84888e-06
1.20692e-07
-1.87425e-06
1.18314e-07
-1.89915e-06
1.16067e-07
-1.9236e-06
1.13943e-07
-1.94762e-06
1.11934e-07
-1.97122e-06
1.10035e-07
-1.99443e-06
1.0824e-07
-2.01726e-06
1.06546e-07
-2.03974e-06
1.04951e-07
-2.06187e-06
1.03453e-07
-2.08369e-06
1.02053e-07
-2.1052e-06
1.00749e-07
-2.12643e-06
9.95442e-08
-2.14739e-06
9.84392e-08
-2.16811e-06
9.7436e-08
-2.18861e-06
9.6536e-08
-2.2089e-06
9.57404e-08
-2.22901e-06
9.50491e-08
-2.24895e-06
9.44615e-08
-2.26875e-06
9.39755e-08
-2.28843e-06
9.35867e-08
-2.308e-06
9.32898e-08
-2.32748e-06
9.30777e-08
-2.34688e-06
9.29402e-08
-2.36622e-06
9.28642e-08
-2.38549e-06
9.28335e-08
-2.4047e-06
9.28295e-08
-2.42384e-06
9.28293e-08
-2.44292e-06
9.28067e-08
-2.46191e-06
9.27319e-08
-2.48079e-06
9.25727e-08
-2.49953e-06
9.22942e-08
-2.51809e-06
9.18588e-08
-2.5364e-06
9.12269e-08
-2.55441e-06
9.03583e-08
-2.57204e-06
8.91891e-08
-2.58925e-06
8.76727e-08
-2.60595e-06
8.57413e-08
-2.62205e-06
8.33471e-08
-2.63744e-06
8.0438e-08
-2.65199e-06
7.69687e-08
-2.66559e-06
7.28871e-08
-2.67809e-06
6.81512e-08
-2.68936e-06
6.27147e-08
-2.69924e-06
5.65438e-08
-2.70756e-06
4.96011e-08
-2.71417e-06
4.18567e-08
-2.71886e-06
3.32854e-08
-2.72142e-06
2.38631e-08
-2.72165e-06
1.35788e-08
-2.71927e-06
2.41325e-09
-2.71405e-06
-9.64191e-09
-2.70571e-06
-2.2597e-08
-2.69397e-06
-3.64159e-08
-2.67861e-06
-5.11176e-08
-2.65943e-06
-6.67055e-08
-2.63619e-06
-8.31895e-08
-2.60869e-06
-1.00524e-07
-2.57673e-06