/*--------------------------------*- C++ -*----------------------------------*\
| =========                 |                                                 |
| \\      /  F ield         | OpenFOAM: The Open Source CFD Toolbox           |
|  \\    /   O peration     | Version:  v2006                                 |
|   \\  /    A nd           | Website:  www.openfoam.com                      |
|    \\/     M anipulation  |                                                 |
\*---------------------------------------------------------------------------*/
FoamFile
{
    version     2.0;
    format      ascii;
    class       volVectorField;
    location    "100";
    object      U;
}
// * * * * * * * * * * * * * * * * * * * * * * * * * * * * * * * * * * * * * //

dimensions      [0 1 -1 0 0 0 0];


internalField   nonuniform List<vector> 
12225
(
(9.84122 -0.956294 0)
(9.59261 -0.8879 0)
(9.31778 -0.594485 0)
(9.01511 -0.37002 0)
(8.72639 -0.226013 0)
(8.46805 -0.137919 0)
(8.24127 -0.0845541 0)
(8.04339 -0.0517129 0)
(7.8719 -0.0313367 0)
(7.72347 -0.0187264 0)
(7.59502 -0.0108128 0)
(7.48354 -0.00591045 0)
(7.38684 -0.00295706 0)
(7.30302 -0.00131427 0)
(7.23048 -0.000536081 0)
(7.17031 -0.00101908 0)
(7.11342 0.0015793 0)
(7.08926 -0.0180602 0)
(10.0721 0.255827 0)
(10.1868 0.418344 0)
(10.2285 0.384097 0)
(10.2297 0.310363 0)
(10.2116 0.245626 0)
(10.1797 0.195357 0)
(10.1339 0.157579 0)
(10.0766 0.129539 0)
(10.0115 0.108655 0)
(9.94222 0.0928723 0)
(9.87101 0.0806391 0)
(9.79967 0.070952 0)
(9.7293 0.0630566 0)
(9.66105 0.0564629 0)
(9.59536 0.0505157 0)
(9.53318 0.0456099 0)
(9.47511 0.0386571 0)
(9.42306 0.0379405 0)
(10.0032 0.0599516 0)
(10.0309 0.0482533 0)
(10.0615 0.00995745 0)
(10.0899 -8.55936e-05 0)
(10.1154 0.00805619 0)
(10.138 0.0192793 0)
(10.1552 0.0288287 0)
(10.1664 0.036267 0)
(10.1724 0.0417698 0)
(10.1742 0.0455536 0)
(10.1726 0.0479315 0)
(10.1681 0.0491933 0)
(10.1615 0.0495627 0)
(10.1531 0.0491729 0)
(10.1436 0.0480355 0)
(10.1335 0.0461217 0)
(10.1235 0.0430576 0)
(10.1126 0.0374 0)
(9.99715 0.00990215 0)
(10.009 0.0260594 0)
(10.0342 0.0382385 0)
(10.0555 0.0532951 0)
(10.0724 0.0647899 0)
(10.088 0.07009 0)
(10.102 0.0711908 0)
(10.1142 0.0703769 0)
(10.1246 0.0687278 0)
(10.1338 0.0666654 0)
(10.142 0.0643868 0)
(10.1492 0.0620062 0)
(10.1556 0.059531 0)
(10.1613 0.0569234 0)
(10.1665 0.0540231 0)
(10.1714 0.0506521 0)
(10.176 0.0462553 0)
(10.1797 0.0396621 0)
(9.99907 0.0067941 0)
(10.0082 0.0342594 0)
(10.028 0.0482673 0)
(10.0438 0.0547697 0)
(10.0561 0.0581904 0)
(10.0682 0.059317 0)
(10.0799 0.0590246 0)
(10.0905 0.0582099 0)
(10.1001 0.0572295 0)
(10.1089 0.056113 0)
(10.1173 0.0548481 0)
(10.1251 0.0534215 0)
(10.1326 0.0517967 0)
(10.1397 0.0499007 0)
(10.1466 0.0475911 0)
(10.1534 0.044675 0)
(10.1598 0.0407811 0)
(10.1655 0.0355223 0)
(10.0002 0.00922482 0)
(10.008 0.0333515 0)
(10.0237 0.0439701 0)
(10.037 0.0482474 0)
(10.0481 0.0516516 0)
(10.0589 0.0539858 0)
(10.0696 0.0549448 0)
(10.0793 0.0550212 0)
(10.0881 0.0546048 0)
(10.0963 0.0538215 0)
(10.1041 0.0527202 0)
(10.1116 0.0513348 0)
(10.1188 0.049664 0)
(10.1257 0.0476617 0)
(10.1325 0.0452213 0)
(10.139 0.0421936 0)
(10.1452 0.0383776 0)
(10.1507 0.0335978 0)
(10.0003 0.00910304 0)
(10.007 0.0286842 0)
(10.0202 0.0387651 0)
(10.0324 0.04384 0)
(10.0428 0.047877 0)
(10.0529 0.0506065 0)
(10.0628 0.051765 0)
(10.0719 0.0518981 0)
(10.0802 0.0514665 0)
(10.0881 0.0506399 0)
(10.0955 0.0494816 0)
(10.1026 0.0480284 0)
(10.1095 0.0462842 0)
(10.1161 0.0442074 0)
(10.1225 0.0417162 0)
(10.1286 0.0387011 0)
(10.1343 0.0350545 0)
(10.1394 0.0307038 0)
(10.0004 0.00811786 0)
(10.006 0.0246209 0)
(10.0172 0.0347301 0)
(10.0285 0.0403084 0)
(10.0384 0.0443117 0)
(10.0479 0.0469403 0)
(10.0572 0.0481204 0)
(10.0659 0.0483213 0)
(10.074 0.047952 0)
(10.0815 0.0471734 0)
(10.0887 0.0460472 0)
(10.0956 0.0446079 0)
(10.1022 0.0428632 0)
(10.1085 0.0407824 0)
(10.1146 0.0383102 0)
(10.1203 0.035377 0)
(10.1256 0.0319373 0)
(10.1303 0.0279862 0)
(10.0004 0.0071785 0)
(10.0052 0.0214114 0)
(10.0147 0.031089 0)
(10.0249 0.0366916 0)
(10.0343 0.0405037 0)
(10.0433 0.0430351 0)
(10.0521 0.0442881 0)
(10.0605 0.0446015 0)
(10.0684 0.0443187 0)
(10.0757 0.0436002 0)
(10.0827 0.0425132 0)
(10.0894 0.0410953 0)
(10.0958 0.0393618 0)
(10.1019 0.0372972 0)
(10.1076 0.0348714 0)
(10.113 0.0320498 0)
(10.118 0.0288271 0)
(10.1224 0.0252354 0)
(10.0004 0.00633543 0)
(10.0045 0.0186214 0)
(10.0126 0.0275407 0)
(10.0218 0.0329935 0)
(10.0306 0.0366448 0)
(10.0391 0.0390898 0)
(10.0474 0.040384 0)
(10.0555 0.0407743 0)
(10.0631 0.0405522 0)
(10.0702 0.0398788 0)
(10.077 0.038827 0)
(10.0835 0.0374377 0)
(10.0897 0.0357325 0)
(10.0955 0.0337111 0)
(10.1011 0.0313638 0)
(10.1062 0.0286835 0)
(10.1108 0.0256884 0)
(10.115 0.0224281 0)
(10.0004 0.00554145 0)
(10.0039 0.0161076 0)
(10.0108 0.0241511 0)
(10.019 0.0293459 0)
(10.0272 0.0328168 0)
(10.0352 0.0351334 0)
(10.0431 0.0364065 0)
(10.0507 0.0368286 0)
(10.058 0.0366433 0)
(10.065 0.036004 0)
(10.0715 0.0349864 0)
(10.0778 0.033634 0)
(10.0838 0.0319745 0)
(10.0894 0.0300198 0)
(10.0947 0.0277767 0)
(10.0996 0.0252566 0)
(10.104 0.0224916 0)
(10.108 0.0195374 0)
(10.0003 0.00483276 0)
(10.0034 0.013993 0)
(10.0094 0.0212025 0)
(10.0168 0.0260661 0)
(10.0244 0.0293267 0)
(10.0319 0.0314891 0)
(10.0394 0.0327005 0)
(10.0467 0.0331202 0)
(10.0537 0.0329507 0)
(10.0604 0.0323338 0)
(10.0668 0.0313455 0)
(10.0728 0.0300319 0)
(10.0786 0.0284254 0)
(10.084 0.0265478 0)
(10.089 0.0244166 0)
(10.0937 0.0220545 0)
(10.0979 0.0194988 0)
(10.1017 0.0168061 0)
(10.0003 0.00416851 0)
(10.003 0.012052 0)
(10.0082 0.0184159 0)
(10.0149 0.0228669 0)
(10.0219 0.0258783 0)
(10.029 0.0278639 0)
(10.036 0.0289847 0)
(10.043 0.0293773 0)
(10.0497 0.0292084 0)
(10.0561 0.028606 0)
(10.0622 0.0276455 0)
(10.0681 0.0263741 0)
(10.0736 0.0248279 0)
(10.0788 0.023036 0)
(10.0836 0.0210239 0)
(10.0881 0.0188208 0)
(10.0922 0.0164657 0)
(10.0958 0.014012 0)
(10.0003 0.00347671 0)
(10.0026 0.0100282 0)
(10.0071 0.0154265 0)
(10.013 0.0193263 0)
(10.0194 0.0219942 0)
(10.026 0.0237384 0)
(10.0326 0.0247163 0)
(10.0391 0.0250444 0)
(10.0455 0.0248544 0)
(10.0516 0.024257 0)
(10.0575 0.0233249 0)
(10.0631 0.0221051 0)
(10.0683 0.0206359 0)
(10.0733 0.0189502 0)
(10.0779 0.0170803 0)
(10.0821 0.0150587 0)
(10.086 0.0129237 0)
(10.0895 0.0107213 0)
(10.0002 0.00275355 0)
(10.0022 0.00791798 0)
(10.0061 0.0122448 0)
(10.0113 0.0154523 0)
(10.0171 0.0176643 0)
(10.0231 0.0190873 0)
(10.0292 0.0198574 0)
(10.0353 0.0200721 0)
(10.0413 0.019831 0)
(10.0471 0.0192241 0)
(10.0526 0.0183175 0)
(10.0579 0.0171577 0)
(10.0629 0.0157815 0)
(10.0676 0.0142235 0)
(10.0719 0.0125169 0)
(10.076 0.0106963 0)
(10.0796 0.00879561 0)
(10.083 0.00685321 0)
(10.0002 0.00199958 0)
(10.0019 0.00572609 0)
(10.0052 0.00888408 0)
(10.0097 0.0112578 0)
(10.0149 0.012887 0)
(10.0204 0.0138935 0)
(10.026 0.0143786 0)
(10.0317 0.0144191 0)
(10.0372 0.0140867 0)
(10.0427 0.0134488 0)
(10.0479 0.0125605 0)
(10.0528 0.0114642 0)
(10.0575 0.0101939 0)
(10.062 0.00878104 0)
(10.0661 0.00725633 0)
(10.0699 0.00565091 0)
(10.0734 0.00399455 0)
(10.0766 0.00231547 0)
(10.0002 0.00121393 0)
(10.0016 0.00344374 0)
(10.0045 0.00533529 0)
(10.0084 0.00673632 0)
(10.0131 0.00764717 0)
(10.018 0.00812786 0)
(10.0232 0.00824048 0)
(10.0284 0.00803649 0)
(10.0336 0.00756338 0)
(10.0387 0.00686519 0)
(10.0436 0.00598191 0)
(10.0482 0.00494666 0)
(10.0527 0.00378792 0)
(10.0568 0.00253027 0)
(10.0607 0.00119866 0)
(10.0643 -0.000183174 0)
(10.0677 -0.00159139 0)
(10.0708 -0.00300756 0)
(10.0002 0.000382454 0)
(10.0014 0.00102479 0)
(10.004 0.00153346 0)
(10.0075 0.00181725 0)
(10.0117 0.00186547 0)
(10.0163 0.00169771 0)
(10.0211 0.00133832 0)
(10.026 0.000810443 0)
(10.0308 0.000137402 0)
(10.0356 -0.000658914 0)
(10.0402 -0.00155798 0)
(10.0446 -0.00254091 0)
(10.0488 -0.0035901 0)
(10.0527 -0.00468968 0)
(10.0564 -0.00582399 0)
(10.0599 -0.00697774 0)
(10.0631 -0.00813574 0)
(10.0661 -0.00928769 0)
(10.0001 -0.000536393 0)
(10.0013 -0.00164697 0)
(10.0037 -0.00268863 0)
(10.0071 -0.0036866 0)
(10.0111 -0.0046464 0)
(10.0155 -0.00558206 0)
(10.0201 -0.0065086 0)
(10.0247 -0.00743472 0)
(10.0294 -0.00836254 0)
(10.034 -0.00929399 0)
(10.0384 -0.0102302 0)
(10.0426 -0.0111712 0)
(10.0467 -0.0121145 0)
(10.0505 -0.013057 0)
(10.0541 -0.0139943 0)
(10.0574 -0.0149218 0)
(10.0605 -0.0158335 0)
(10.0634 -0.0167278 0)
(10.0002 -0.00140397 0)
(10.0014 -0.00417283 0)
(10.0039 -0.00669363 0)
(10.0074 -0.00890613 0)
(10.0116 -0.0108066 0)
(10.0161 -0.0124513 0)
(10.0208 -0.0138976 0)
(10.0255 -0.0151803 0)
(10.0302 -0.0163285 0)
(10.0348 -0.0173701 0)
(10.0392 -0.0183303 0)
(10.0435 -0.0192262 0)
(10.0475 -0.0200699 0)
(10.0513 -0.0208691 0)
(10.0548 -0.0216306 0)
(10.0582 -0.0223582 0)
(10.0613 -0.0230549 0)
(10.0641 -0.023724 0)
(10.0002 -0.00213749 0)
(10.0015 -0.00634178 0)
(10.0043 -0.0101496 0)
(10.0082 -0.0133538 0)
(10.0127 -0.0159687 0)
(10.0175 -0.0181459 0)
(10.0224 -0.0199846 0)
(10.0273 -0.0215246 0)
(10.0322 -0.0228113 0)
(10.0369 -0.0239012 0)
(10.0414 -0.0248444 0)
(10.0458 -0.0256749 0)
(10.0498 -0.0264172 0)
(10.0537 -0.0270884 0)
(10.0573 -0.0277031 0)
(10.0606 -0.028272 0)
(10.0638 -0.0288029 0)
(10.0667 -0.0293036 0)
(10.0002 -0.00281465 0)
(10.0017 -0.00844757 0)
(10.0048 -0.013572 0)
(10.0093 -0.0176771 0)
(10.0143 -0.0208493 0)
(10.0195 -0.023422 0)
(10.0247 -0.0255497 0)
(10.03 -0.0272743 0)
(10.0351 -0.0286546 0)
(10.04 -0.0297675 0)
(10.0447 -0.0306752 0)
(10.0491 -0.0314242 0)
(10.0533 -0.0320494 0)
(10.0572 -0.0325807 0)
(10.0608 -0.0330394 0)
(10.0642 -0.0334436 0)
(10.0674 -0.0338034 0)
(10.0703 -0.0341285 0)
(10.0001 -0.0034167 0)
(10.0017 -0.0105297 0)
(10.0054 -0.0169809 0)
(10.0107 -0.0218998 0)
(10.0164 -0.0256008 0)
(10.022 -0.0285397 0)
(10.0276 -0.0308449 0)
(10.0332 -0.0326031 0)
(10.0386 -0.0339579 0)
(10.0437 -0.0350261 0)
(10.0486 -0.0358721 0)
(10.0532 -0.0365397 0)
(10.0574 -0.0370688 0)
(10.0614 -0.037494 0)
(10.0652 -0.0378422 0)
(10.0686 -0.0381322 0)
(10.0718 -0.0383772 0)
(10.0748 -0.0385892 0)
(10.0001 -0.00389937 0)
(10.0016 -0.0129965 0)
(10.006 -0.0204897 0)
(10.0123 -0.0256138 0)
(10.0186 -0.0297345 0)
(10.0247 -0.0332633 0)
(10.0308 -0.0359315 0)
(10.0367 -0.0377685 0)
(10.0424 -0.0390408 0)
(10.0477 -0.0399508 0)
(10.0528 -0.0405965 0)
(10.0575 -0.0410409 0)
(10.0619 -0.0413413 0)
(10.066 -0.0415447 0)
(10.0698 -0.0416852 0)
(10.0734 -0.041784 0)
(10.0766 -0.0418543 0)
(10.0797 -0.0418965 0)
(9.9998 -0.00357117 0)
(10.0011 -0.0166327 0)
(10.0069 -0.0256547 0)
(10.014 -0.0298779 0)
(10.0205 -0.0332472 0)
(10.0269 -0.0367531 0)
(10.0337 -0.0397412 0)
(10.0404 -0.0419758 0)
(10.0466 -0.0436141 0)
(10.0523 -0.0448052 0)
(10.0577 -0.045631 0)
(10.0628 -0.0461656 0)
(10.0674 -0.0464844 0)
(10.0718 -0.0466515 0)
(10.0757 -0.0467142 0)
(10.0794 -0.0467062 0)
(10.0829 -0.0466525 0)
(10.0861 -0.0465665 0)
(9.99829 -1.64512e-05 0)
(9.99795 -0.0176818 0)
(10.0068 -0.0316046 0)
(10.0161 -0.0377299 0)
(10.0231 -0.0404659 0)
(10.03 -0.0420551 0)
(10.0374 -0.0430534 0)
(10.0449 -0.0437951 0)
(10.0519 -0.0444437 0)
(10.0585 -0.045005 0)
(10.0646 -0.0454472 0)
(10.0703 -0.0457819 0)
(10.0756 -0.0460324 0)
(10.0804 -0.046226 0)
(10.0849 -0.046376 0)
(10.089 -0.0464996 0)
(10.0928 -0.0466005 0)
(10.0962 -0.0466501 0)
(9.99413 0.00276456 0)
(9.98993 -0.00764535 0)
(10.0031 -0.0229329 0)
(10.0184 -0.0397804 0)
(10.03 -0.0532019 0)
(10.04 -0.0610038 0)
(10.0497 -0.0645694 0)
(10.0587 -0.0658499 0)
(10.067 -0.0659741 0)
(10.0747 -0.0653872 0)
(10.0819 -0.0643697 0)
(10.0885 -0.0631117 0)
(10.0945 -0.0617777 0)
(10.1 -0.0604477 0)
(10.1049 -0.0591859 0)
(10.1093 -0.0580224 0)
(10.1134 -0.0569832 0)
(10.1171 -0.0560213 0)
(9.9942 -0.0305159 0)
(9.99523 -0.0134897 0)
(10.0085 0.0214598 0)
(10.0271 0.0319382 0)
(10.0468 0.0240414 0)
(10.0665 0.0114726 0)
(10.0846 -0.000271488 0)
(10.1002 -0.0105118 0)
(10.1133 -0.0191778 0)
(10.1243 -0.0262783 0)
(10.1334 -0.031907 0)
(10.1407 -0.0363078 0)
(10.1463 -0.0397112 0)
(10.1504 -0.0423337 0)
(10.1533 -0.044338 0)
(10.1549 -0.0458943 0)
(10.1557 -0.0471322 0)
(10.1555 -0.0481995 0)
(10.0368 -0.209418 0)
(10.1083 -0.365921 0)
(10.1423 -0.352779 0)
(10.1567 -0.298083 0)
(10.1695 -0.247681 0)
(10.1817 -0.206862 0)
(10.1881 -0.174443 0)
(10.1863 -0.149098 0)
(10.1768 -0.129397 0)
(10.1612 -0.113888 0)
(10.1404 -0.101508 0)
(10.1158 -0.0914983 0)
(10.0881 -0.0833254 0)
(10.0582 -0.0765818 0)
(10.027 -0.0709867 0)
(9.99484 -0.0663609 0)
(9.96236 -0.0625524 0)
(9.93018 -0.0598673 0)
(9.92866 0.765528 0)
(9.83918 0.742056 0)
(9.70519 0.524414 0)
(9.52607 0.348754 0)
(9.33141 0.227653 0)
(9.13998 0.14694 0)
(8.95795 0.0935269 0)
(8.7878 0.0579234 0)
(8.63093 0.0340513 0)
(8.48798 0.0180283 0)
(8.3583 0.00735709 0)
(8.2411 0.000371528 0)
(8.1352 -0.00418506 0)
(8.03955 -0.00704593 0)
(7.95302 -0.00873048 0)
(7.87464 -0.00967478 0)
(7.80306 -0.0101615 0)
(7.73791 -0.0107791 0)
(0.00615301 -0.0102115 -7.86714e-19)
(0.0255045 -0.0293565 5.23139e-19)
(0.0480318 -0.0370639 0)
(0.0710296 -0.0362143 0)
(0.0905749 -0.0300241 0)
(0.104662 -0.0213115 -2.65322e-19)
(0.112807 -0.0117229 0)
(0.115244 -0.00210615 0)
(0.111387 0.0068678 0)
(0.102115 0.0145822 0)
(0.0883225 0.0207997 2.55982e-19)
(0.0709031 0.0254758 0)
(0.0506349 0.0287694 0)
(0.0280907 0.031088 0)
(0.00365479 0.03292 0)
(-0.022492 0.0343262 3.1179e-19)
(-0.0504963 0.0354318 0)
(-0.0806447 0.0366292 0)
(-0.113132 0.0381157 0)
(-0.148135 0.0399243 0)
(-0.185845 0.0419887 0)
(-0.226381 0.0442182 0)
(-0.26974 0.0465093 0)
(-0.315897 0.0488065 1.36177e-19)
(-0.36476 0.0510286 -1.24786e-19)
(-0.416116 0.0530855 1.14803e-19)
(-0.469689 0.0548934 1.06038e-19)
(-0.52514 0.0563897 0)
(-0.582093 0.0575172 0)
(-0.640145 0.0582504 -8.56881e-20)
(-0.698874 0.0585715 -8.04793e-20)
(-0.757866 0.0584938 0)
(-0.816737 0.058038 0)
(-0.875146 0.0572456 -6.82853e-20)
(-0.932801 0.0561588 0)
(-0.989455 0.0548333 0)
(-1.04492 0.0533171 5.98005e-20)
(-1.09904 0.0516667 0)
(-1.15173 0.0499258 5.55415e-20)
(-1.20292 0.0481416 1.07448e-19)
(-1.25261 0.0463447 0)
(-1.30079 0.0445687 0)
(-1.3475 0.0428307 0)
(-1.39279 0.0411519 0)
(-1.4367 0.0395381 0)
(-1.47932 0.0380013 9.141e-20)
(-1.5207 0.03654 8.93992e-20)
(-1.56092 0.0351607 8.7517e-20)
(-1.60006 0.0338574 0)
(-1.63818 0.0326317 -8.40696e-20)
(-1.67535 0.0314733 0)
(-1.71164 0.0303828 8.09603e-20)
(-1.7471 0.0293505 7.95061e-20)
(-1.7818 0.0283765 0)
(-1.81578 0.0274505 0)
(-1.8491 0.0265744 0)
(-1.88179 0.0257395 7.41798e-20)
(-1.9139 0.0249483 0)
(-1.94546 0.0241922 0)
(-1.97651 0.0234755 0)
(-2.00707 0.0227917 0)
(-2.03719 0.022146 0)
(-2.06688 0.0215325 0)
(-2.09619 0.0209569 0)
(-2.12513 0.0204146 0)
(-2.15374 0.0199119 -6.37283e-20)
(-2.18204 0.0194444 0)
(-2.21007 0.0190174 0)
(-2.23784 0.0186275 6.04347e-20)
(-2.2654 0.0182802 5.93457e-20)
(-2.29277 0.0179732 0)
(-2.31999 0.0177106 -5.71789e-20)
(-2.3471 0.0174897 5.61005e-20)
(-2.37412 0.0173137 0)
(-2.40111 0.0171816 -5.39529e-20)
(-2.42809 0.0170967 0)
(-2.45511 0.0170617 0)
(-2.48219 0.0170798 5.07612e-20)
(-2.50937 0.0171502 0)
(-2.53667 0.0172726 -4.86627e-20)
(-2.56413 0.0174483 0)
(-2.59176 0.0176729 4.65995e-20)
(-2.61958 0.0179414 4.55854e-20)
(-2.6476 0.0182442 4.45853e-20)
(-2.67582 0.0185791 8.72047e-20)
(-2.70424 0.0189357 -8.52778e-20)
(-2.73283 0.0193086 0)
(-2.76155 0.0196766 0)
(-2.79033 0.0200292 0)
(-2.81914 0.0203264 -7.80548e-20)
(-2.848 0.0205339 -7.63797e-20)
(-2.87684 0.0206341 7.47601e-20)
(-2.90554 0.0206122 0)
(-2.93396 0.0204616 -7.16904e-20)
(-2.96197 0.0201724 -7.02417e-20)
(-2.9894 0.0197419 -6.88525e-20)
(-3.01608 0.0191697 0)
(-3.04182 0.0184649 0)
(-3.0664 0.0176351 0)
(-3.0896 0.0166924 -6.39542e-20)
(-3.11114 0.0156473 0)
(-3.13073 0.0145294 0)
(-3.14804 0.0133235 6.10526e-20)
(-3.16268 0.011901 0)
(-3.17415 0.0101745 0)
(-3.18195 0.00770628 5.87535e-20)
(-3.18557 0.00580243 0)
(-3.18613 0.00574439 0)
(-3.18361 0.00436439 -5.64589e-20)
(-3.17718 0.00251875 -5.56343e-20)
(-3.16701 0.00139517 0)
(-3.15279 -0.000522462 5.39448e-20)
(-3.13426 -0.00253393 0)
(-3.11112 -0.00513709 -5.19359e-20)
(-3.0831 -0.00756327 0)
(-3.05033 -0.00914708 -4.93966e-20)
(-3.01278 -0.0116156 -4.7879e-20)
(-2.96991 -0.0147006 0)
(-2.92161 -0.0174625 0)
(-2.86812 -0.0201548 0)
(-2.80932 -0.0228739 0)
(-2.74516 -0.0260415 0)
(-2.67555 -0.0293065 0)
(-2.60054 -0.0326606 0)
(-2.52012 -0.036096 -2.35825e-20)
(-2.43442 -0.0395977 1.82325e-20)
(-2.34357 -0.0431309 0)
(-2.24776 -0.046682 0)
(-2.14722 -0.0502055 0)
(-2.0422 -0.05368 0)
(-1.93301 -0.0570668 -4.20894e-20)
(-1.81996 -0.0603453 0)
(-1.70341 -0.0634823 8.85106e-20)
(-1.58374 -0.0664612 -1.15814e-19)
(-1.46134 -0.0692537 0)
(-1.33665 -0.0718553 0)
(-1.21007 -0.0742739 0)
(-1.08204 -0.0765076 2.60022e-19)
(-0.952974 -0.0785712 3.07212e-19)
(-0.823281 -0.0804799 0)
(-0.693336 -0.0822546 4.2007e-19)
(-0.563507 -0.083848 4.88111e-19)
(-0.434298 -0.0852288 -5.6617e-19)
(-0.305608 -0.08649 0)
(-0.178866 -0.0878111 0)
(-0.0507308 -0.0874264 -8.09803e-19)
(0.0803224 -0.0842634 0)
(0.20851 -0.0801236 0)
(0.333501 -0.0758689 0)
(0.454682 -0.0716962 0)
(0.571706 -0.0676663 6.69883e-19)
(0.684402 -0.0637958 6.52512e-19)
(0.792685 -0.060079 0)
(0.896548 -0.0565427 6.23641e-19)
(0.99603 -0.0532036 0)
(1.09118 -0.0500178 0)
(1.18209 -0.0469761 5.90439e-19)
(1.2689 -0.044113 0)
(1.35174 -0.0414281 5.72548e-19)
(1.43073 -0.0388941 0)
(1.50599 -0.0365017 0)
(1.57767 -0.0342425 5.50569e-19)
(1.64592 -0.0321162 0)
(1.71089 -0.0301186 5.38278e-19)
(1.77271 -0.0282386 0)
(1.83151 -0.0264648 0)
(1.88741 -0.0247918 0)
(1.94051 -0.02321 -5.18152e-19)
(1.99091 -0.0217088 0)
(2.03867 -0.0202761 5.09979e-19)
(2.08384 -0.0188967 0)
(2.1264 -0.0175438 0)
(2.16622 -0.0161846 0)
(2.20308 -0.0147583 0)
(2.23649 -0.0131705 0)
(2.2652 -0.0112334 0)
(2.28832 -0.00829348 0)
(2.2964 -0.00284558 -9.97772e-19)
(2.29088 0.0102032 0)
(2.18243 0.0290536 0)
(0.015458 -0.0576245 1.43407e-18)
(0.0362405 -0.0732499 -6.38205e-19)
(0.0468132 -0.0663554 0)
(0.0536199 -0.0543203 1.92412e-19)
(0.056212 -0.0396164 0)
(0.0548819 -0.0236009 7.54719e-20)
(0.0501247 -0.00726917 -1.43577e-19)
(0.0421921 0.00872089 -1.39421e-19)
(0.0312973 0.0237709 0)
(0.0171422 0.0373377 -1.37379e-19)
(-0.000401659 0.0491107 -6.91137e-20)
(-0.0213961 0.0590568 0)
(-0.0458553 0.0673887 0)
(-0.073779 0.0744715 0)
(-0.105172 0.0807514 0)
(-0.139886 0.0866289 -6.04287e-20)
(-0.177593 0.0924235 0)
(-0.218136 0.0983593 1.1155e-19)
(-0.26146 0.10453 0)
(-0.307431 0.110903 0)
(-0.355877 0.117344 -9.81471e-20)
(-0.406582 0.123665 0)
(-0.459276 0.129663 8.96722e-20)
(-0.513641 0.135147 -4.30098e-20)
(-0.569311 0.139933 4.1104e-20)
(-0.625894 0.143867 -3.93037e-20)
(-0.682998 0.14684 -3.76146e-20)
(-0.740235 0.148799 0)
(-0.797252 0.149718 0)
(-0.853721 0.149599 3.32112e-20)
(-0.909365 0.148498 -3.16857e-20)
(-0.963959 0.146519 0)
(-1.01733 0.143786 0)
(-1.06935 0.14044 2.87596e-20)
(-1.11994 0.136615 0)
(-1.16905 0.132446 0)
(-1.21668 0.128048 -2.62789e-20)
(-1.26283 0.123532 0)
(-1.30753 0.118985 2.47183e-20)
(-1.35082 0.114487 -4.86871e-20)
(-1.39277 0.110093 0)
(-1.43344 0.10585 0)
(-1.4729 0.101783 -9.08265e-20)
(-1.51122 0.0979164 -8.90585e-20)
(-1.54846 0.0942563 -8.74025e-20)
(-1.58471 0.0908096 4.27389e-20)
(-1.62002 0.0875704 -4.23698e-20)
(-1.65446 0.0845364 -1.24663e-19)
(-1.68809 0.0816951 8.16718e-20)
(-1.72095 0.0790396 4.0369e-20)
(-1.75312 0.0765534 0)
(-1.78462 0.0742278 -3.91688e-20)
(-1.81551 0.0720466 3.83006e-20)
(-1.84584 0.0700018 0)
(-1.87563 0.0680783 0)
(-1.90492 0.0662702 0)
(-1.93376 0.0645643 -3.64615e-20)
(-1.96215 0.0629571 0)
(-1.99015 0.061437 7.06662e-20)
(-2.01776 0.0600022 0)
(-2.04502 0.0586435 6.87102e-20)
(-2.07195 0.0573612 0)
(-2.09858 0.0561479 -6.67794e-20)
(-2.12492 0.0550051 0)
(-2.15101 0.0539266 6.4858e-20)
(-2.17685 0.0529153 -3.18638e-20)
(-2.20249 0.0519665 0)
(-2.22793 0.051084 -6.19676e-20)
(-2.25322 0.0502647 -3.0575e-20)
(-2.27836 0.049512 -3.00888e-20)
(-2.30338 0.0488234 0)
(-2.32832 0.0482011 -2.89783e-20)
(-2.35319 0.047642 -2.86298e-20)
(-2.37802 0.0471452 0)
(-2.40283 0.0467062 2.76582e-20)
(-2.42764 0.0463226 -5.42097e-20)
(-2.45248 0.0459917 0)
(-2.47735 0.0457102 -2.62079e-20)
(-2.50227 0.0454718 0)
(-2.52724 0.0452679 7.56e-20)
(-2.55227 0.0450939 0)
(-2.57736 0.0449401 -7.27565e-20)
(-2.60248 0.0447973 -2.38429e-20)
(-2.62763 0.0446479 2.32009e-20)
(-2.65279 0.0444838 4.5478e-20)
(-2.67791 0.0442915 -4.45689e-20)
(-2.70297 0.0440688 0)
(-2.72788 0.0438031 0)
(-2.75254 0.0434894 0)
(-2.77689 0.0430951 1.2449e-19)
(-2.80085 0.0425769 4.09095e-20)
(-2.82434 0.041903 -4.01696e-20)
(-2.84725 0.0410513 0)
(-2.86943 0.0400079 -3.81466e-20)
(-2.89073 0.0387483 3.81066e-20)
(-2.91102 0.0372526 3.74722e-20)
(-2.93011 0.0354947 0)
(-2.94786 0.0334595 0)
(-2.96408 0.031125 0)
(-2.97861 0.0284795 3.52387e-20)
(-2.99128 0.0255023 0)
(-3.00197 0.0221836 -6.81313e-20)
(-3.01057 0.0185232 -1.01244e-19)
(-3.01699 0.0145452 6.65709e-20)
(-3.02121 0.0103139 0)
(-3.02328 0.00593813 3.22987e-20)
(-3.02322 0.00152187 0)
(-3.01989 -0.00296852 6.36375e-20)
(-3.01292 -0.00759059 -3.12488e-20)
(-3.00241 -0.0124137 -3.08807e-20)
(-2.98792 -0.0174643 0)
(-2.96924 -0.022699 -9.11644e-20)
(-2.9462 -0.0281005 5.97166e-20)
(-2.91867 -0.0336937 2.94909e-20)
(-2.88648 -0.0393733 0)
(-2.84927 -0.0451185 2.82347e-20)
(-2.80692 -0.0510184 8.22784e-20)
(-2.75937 -0.0569071 0)
(-2.70655 -0.0627937 5.1181e-20)
(-2.64835 -0.0687535 4.89475e-20)
(-2.5846 -0.0746655 4.63909e-20)
(-2.51533 -0.0805411 0)
(-2.44054 -0.0863281 0)
(-2.36021 -0.092005 0)
(-2.27437 -0.0974715 -1.64346e-20)
(-2.18311 -0.102729 -1.30639e-20)
(-2.08657 -0.107729 0)
(-1.98497 -0.112455 -1.57882e-20)
(-1.87851 -0.116866 -9.16588e-21)
(-1.76749 -0.120943 0)
(-1.65221 -0.12464 8.0671e-21)
(-1.53302 -0.127942 2.94016e-20)
(-1.41031 -0.130819 -2.64276e-20)
(-1.28447 -0.13326 -3.15373e-20)
(-1.15595 -0.135254 0)
(-1.0252 -0.136805 0)
(-0.892676 -0.137917 0)
(-0.758839 -0.138616 -8.45537e-20)
(-0.624151 -0.138927 9.16111e-20)
(-0.489052 -0.138889 2.18291e-19)
(-0.35393 -0.138532 -1.27577e-19)
(-0.219222 -0.137923 1.35917e-19)
(-0.0846935 -0.137175 1.56756e-19)
(0.0495987 -0.136469 0)
(0.182301 -0.135871 0)
(0.311616 -0.134108 -1.73951e-19)
(0.436733 -0.130389 0)
(0.558055 -0.125573 0)
(0.676087 -0.120307 3.9461e-19)
(0.790702 -0.114868 0)
(0.90172 -0.109396 2.06254e-19)
(1.009 -0.103979 -2.1641e-19)
(1.11246 -0.0986623 0)
(1.21206 -0.0934882 2.20973e-19)
(1.30779 -0.0884885 0)
(1.39968 -0.0836753 0)
(1.48779 -0.0790527 -2.36168e-19)
(1.57219 -0.0746436 4.74761e-19)
(1.65295 -0.070447 -2.41745e-19)
(1.73015 -0.066447 0)
(1.80393 -0.0626443 0)
(1.87442 -0.0590403 2.4586e-19)
(1.94172 -0.0556365 0)
(2.00596 -0.0524211 2.4972e-19)
(2.06726 -0.0493743 0)
(2.12572 -0.0464852 0)
(2.18147 -0.0437464 0)
(2.23459 -0.0411419 2.57484e-19)
(2.28516 -0.0386519 0)
(2.33325 -0.036255 -2.59621e-19)
(2.37888 -0.0339157 0)
(2.42205 -0.0315806 0)
(2.46263 -0.0291676 5.23829e-19)
(2.50041 -0.0265559 -5.25963e-19)
(2.53498 -0.0234978 0)
(2.56544 -0.0196044 0)
(2.59089 -0.0136225 0)
(2.60779 -0.00329846 1.6257e-18)
(2.62462 0.0178507 0)
(2.61358 0.0565625 -1.12394e-18)
(0.00899044 -0.1026 -7.93403e-22)
(0.0200324 -0.0972366 6.30036e-19)
(0.0206304 -0.0745509 0)
(0.0183795 -0.0522799 -2.62204e-19)
(0.0126425 -0.0303171 0)
(0.00396926 -0.00858231 0)
(-0.00718098 0.0127276 8.20269e-23)
(-0.0206281 0.0333482 8.29635e-20)
(-0.036389 0.0530357 7.89163e-20)
(-0.0545813 0.0715338 7.61974e-20)
(-0.0753685 0.0886125 0)
(-0.0989344 0.104161 0)
(-0.125445 0.118232 -7.04525e-20)
(-0.155014 0.131032 -1.37599e-19)
(-0.187671 0.142861 1.34195e-19)
(-0.223328 0.15405 0)
(-0.261791 0.164853 1.26913e-19)
(-0.302812 0.175396 -6.1674e-20)
(-0.346115 0.185692 0)
(-0.391396 0.195644 1.15054e-19)
(-0.438339 0.205069 5.56531e-20)
(-0.486614 0.213737 -1.07048e-19)
(-0.53589 0.221414 -5.17052e-20)
(-0.585836 0.227886 0)
(-0.636138 0.232982 9.57278e-20)
(-0.686501 0.236585 9.22466e-20)
(-0.736667 0.238637 0)
(-0.786404 0.239139 8.57719e-20)
(-0.835497 0.238152 0)
(-0.883789 0.235792 7.99147e-20)
(-0.931179 0.232212 3.87447e-20)
(-0.977591 0.227591 0)
(-1.02297 0.222122 0)
(-1.0673 0.216001 0)
(-1.11055 0.209409 0)
(-1.15272 0.202516 0)
(-1.19383 0.195468 0)
(-1.23388 0.188389 6.33263e-20)
(-1.27291 0.181383 -9.29095e-20)
(-1.31094 0.174535 0)
(-1.34801 0.167907 0)
(-1.38413 0.161544 0)
(-1.41936 0.155476 2.05659e-22)
(-1.45373 0.14972 5.61199e-20)
(-1.48727 0.144282 1.10078e-19)
(-1.52003 0.139162 -1.08227e-19)
(-1.55204 0.13435 -5.31414e-20)
(-1.58335 0.129837 5.24953e-20)
(-1.61399 0.125606 -1.8151e-22)
(-1.64399 0.121642 5.07538e-20)
(-1.67339 0.117926 0)
(-1.70223 0.114441 4.93148e-20)
(-1.73054 0.11117 -1.62483e-22)
(-1.75834 0.108095 0)
(-1.78567 0.105202 0)
(-1.81256 0.102477 -4.668e-20)
(-1.83902 0.0999051 0)
(-1.86509 0.0974774 0)
(-1.89078 0.0951827 4.47037e-20)
(-1.91612 0.0930131 8.84712e-20)
(-1.94113 0.0909609 -4.37624e-20)
(-1.96582 0.089021 0)
(-1.99022 0.087188 4.25704e-20)
(-2.01435 0.0854587 0)
(-2.03823 0.0838298 4.1174e-20)
(-2.06186 0.0823 4.07898e-20)
(-2.08529 0.0808673 -8.01949e-20)
(-2.10851 0.0795317 -3.94099e-20)
(-2.13156 0.0782924 0)
(-2.15445 0.0771488 7.66278e-20)
(-2.17721 0.0760999 0)
(-2.19985 0.075144 1.11438e-19)
(-2.2224 0.0742791 7.30303e-20)
(-2.24486 0.0735008 7.18259e-20)
(-2.26728 0.072805 -7.06201e-20)
(-2.28965 0.0721855 1.04214e-19)
(-2.312 0.0716371 0)
(-2.33434 0.0711509 0)
(-2.35668 0.070717 -6.58055e-20)
(-2.37902 0.0703215 -9.70208e-20)
(-2.40137 0.069953 0)
(-2.42372 0.069594 3.12342e-20)
(-2.44606 0.0692283 0)
(-2.46839 0.0688333 -9.00046e-20)
(-2.49068 0.0683914 -2.51988e-22)
(-2.5129 0.0678795 2.63765e-22)
(-2.53501 0.0672813 5.65701e-20)
(-2.55696 0.0665744 0)
(-2.57867 0.0657391 -5.44592e-20)
(-2.60006 0.064738 -3.23945e-22)
(-2.62108 0.0635278 0)
(-2.64167 0.0620711 0)
(-2.66172 0.0603426 0)
(-2.68113 0.0583184 5.01387e-20)
(-2.69976 0.0559755 0)
(-2.71751 0.0532889 0)
(-2.73422 0.0502374 0)
(-2.74977 0.0468033 0)
(-2.76401 0.0429735 0)
(-2.77678 0.0387408 4.54313e-20)
(-2.78795 0.0341006 0)
(-2.79735 0.0290598 4.46843e-20)
(-2.80482 0.0236245 4.41765e-20)
(-2.81021 0.0178051 -4.36961e-20)
(-2.8133 0.01161 0)
(-2.81391 0.00504549 -4.27335e-20)
(-2.81176 -0.00183871 0)
(-2.80638 -0.00896283 -4.17672e-20)
(-2.79753 -0.01644 4.12892e-20)
(-2.78508 -0.0242832 1.21829e-19)
(-2.76873 -0.0324444 0)
(-2.74828 -0.0409259 1.18511e-19)
(-2.72353 -0.0496963 3.86828e-20)
(-2.69432 -0.058744 0)
(-2.66039 -0.0679739 7.47401e-20)
(-2.62158 -0.0772924 7.29709e-20)
(-2.57772 -0.0867803 -1.06435e-19)
(-2.52862 -0.0963441 0)
(-2.47432 -0.105892 -3.29097e-20)
(-2.41457 -0.115476 -3.13744e-20)
(-2.34936 -0.124976 -8.9457e-20)
(-2.27862 -0.134373 0)
(-2.2024 -0.143579 0)
(-2.12065 -0.152545 0)
(-2.03343 -0.161171 -2.13524e-20)
(-1.94085 -0.1694 0)
(-1.84304 -0.177171 0)
(-1.74022 -0.18443 9.77758e-21)
(-1.63264 -0.191118 5.64529e-21)
(-1.52057 -0.197185 0)
(-1.40436 -0.202577 0)
(-1.28436 -0.207253 -1.77799e-20)
(-1.16098 -0.211176 0)
(-1.03465 -0.214322 4.06746e-20)
(-0.905825 -0.216676 4.9788e-20)
(-0.774973 -0.218243 0)
(-0.64257 -0.219035 0)
(-0.509092 -0.219088 -9.02025e-20)
(-0.375 -0.218443 -4.02303e-21)
(-0.240743 -0.217167 -4.17951e-21)
(-0.106607 -0.215369 0)
(0.0270699 -0.213144 -2.9799e-19)
(0.159541 -0.210365 0)
(0.290048 -0.206874 0)
(0.418004 -0.20272 0)
(0.542785 -0.19797 1.93331e-19)
(0.664029 -0.192428 0)
(0.781797 -0.186069 -4.17587e-19)
(0.896167 -0.179178 -2.21532e-19)
(1.00705 -0.171981 0)
(1.11433 -0.164633 -2.38476e-19)
(1.21791 -0.157247 0)
(1.31774 -0.149904 0)
(1.4138 -0.142671 -7.76876e-19)
(1.5061 -0.1356 5.29587e-19)
(1.59467 -0.128724 0)
(1.67957 -0.12206 5.5416e-19)
(1.76087 -0.11564 -2.8473e-19)
(1.83865 -0.109487 0)
(1.91304 -0.103599 0)
(1.98414 -0.097977 0)
(2.05209 -0.0926185 -9.05033e-19)
(2.11699 -0.0875273 0)
(2.17896 -0.082692 -3.10071e-19)
(2.23812 -0.0780943 0)
(2.29459 -0.0737199 0)
(2.34847 -0.0695568 0)
(2.39985 -0.0655827 0)
(2.44881 -0.0617715 0)
(2.49542 -0.0580896 0)
(2.53971 -0.0544829 -6.56616e-19)
(2.58166 -0.0508699 0)
(2.62119 -0.0471293 -3.33624e-19)
(2.65811 -0.0430728 1.00584e-18)
(2.6921 -0.0383646 0)
(2.72249 -0.0324306 0)
(2.74879 -0.0239873 -6.86706e-19)
(2.76853 -0.0109277 -6.96464e-19)
(2.78671 0.0123358 7.02328e-19)
(2.79227 0.0554448 7.21821e-19)
(-0.000572114 -0.119438 -1.96749e-18)
(-0.000114985 -0.0952772 -7.82393e-19)
(-0.00706735 -0.0647197 -2.90768e-19)
(-0.0158885 -0.0364911 -1.03635e-19)
(-0.0270117 -0.00958202 0)
(-0.0401035 0.0165169 1.46271e-19)
(-0.0549962 0.0419257 -6.59382e-20)
(-0.0716597 0.066599 0)
(-0.0901622 0.0904095 -5.81042e-20)
(-0.110621 0.113189 0)
(-0.133179 0.134777 1.07902e-19)
(-0.157987 0.155065 0)
(-0.18518 0.174034 5.1259e-20)
(-0.214839 0.191754 1.00089e-19)
(-0.246964 0.20835 -9.76548e-20)
(-0.281462 0.223965 0)
(-0.318154 0.2387 -9.25271e-20)
(-0.356792 0.252586 0)
(-0.397086 0.265573 0)
(-0.438722 0.277538 -8.42062e-20)
(-0.481383 0.288304 0)
(-0.524763 0.297677 6.91001e-23)
(-0.568574 0.30547 0)
(-0.612558 0.311532 0)
(-0.656488 0.315762 -6.45563e-23)
(-0.700175 0.318119 -6.8173e-20)
(-0.743461 0.318624 -6.57617e-20)
(-0.786224 0.317349 -6.36069e-20)
(-0.828381 0.314425 0)
(-0.869877 0.310035 -1.19077e-19)
(-0.91067 0.304386 0)
(-0.950733 0.297693 -5.59736e-20)
(-0.99005 0.290168 0)
(-1.02861 0.282018 0)
(-1.06641 0.273432 5.15138e-20)
(-1.10343 0.264583 0)
(-1.13969 0.255621 -4.90074e-20)
(-1.17518 0.246675 -8.37521e-23)
(-1.20991 0.237853 9.37339e-20)
(-1.24388 0.229238 -9.16825e-20)
(-1.27711 0.220897 0)
(-1.30962 0.212876 0)
(-1.3414 0.205207 -4.31653e-20)
(-1.37249 0.197909 0)
(-1.4029 0.190989 -4.18444e-20)
(-1.43265 0.184448 4.116e-20)
(-1.46177 0.178277 4.05093e-20)
(-1.49028 0.172465 0)
(-1.51821 0.166996 -3.92946e-20)
(-1.54557 0.161852 -3.87242e-20)
(-1.5724 0.157014 7.62078e-20)
(-1.59872 0.15246 -3.76429e-20)
(-1.62455 0.148173 -3.71273e-20)
(-1.64991 0.144132 0)
(-1.67484 0.14032 0)
(-1.69935 0.136719 3.56549e-20)
(-1.72345 0.133314 0)
(-1.74718 0.130093 0)
(-1.77054 0.127042 -6.85168e-20)