/*--------------------------------*- C++ -*----------------------------------*\
| =========                 |                                                 |
| \\      /  F ield         | OpenFOAM: The Open Source CFD Toolbox           |
|  \\    /   O peration     | Version:  v2006                                 |
|   \\  /    A nd           | Website:  www.openfoam.com                      |
|    \\/     M anipulation  |                                                 |
\*---------------------------------------------------------------------------*/
FoamFile
{
    version     2.0;
    format      ascii;
    class       volScalarField;
    location    "280";
    object      epsilon;
}
// * * * * * * * * * * * * * * * * * * * * * * * * * * * * * * * * * * * * * //

dimensions      [0 2 -3 0 0 0 0];


internalField   nonuniform List<scalar> 
12225
(
1085.71
2467.78
3645.43
4414.73
4812.13
4980.49
4975.31
4926.49
4840.67
4729.12
4620.67
4517.19
4425.49
4339.5
4269.01
4198.42
4150.88
4085.42
81.2309
262.522
438.553
584.506
691.163
762.832
805.006
829.691
846.838
856.912
866.599
873.747
882.985
891.008
900.522
910.439
917.539
934.518
20.5771
51.1755
83.4684
112.537
136.923
156.197
170.157
179.897
186.373
190.793
193.487
195.624
196.868
198.371
199.403
200.716
202.74
206.037
14.7578
21.8681
30.0193
38.5024
46.2153
53.0395
58.6215
63.2646
66.7552
69.6476
71.6128
73.3335
74.3201
75.3392
75.7383
76.4139
76.6301
77.3482
14.361
16.3335
18.456
21.4876
24.4382
27.2623
29.7361
31.9835
33.8188
35.4797
36.7452
37.9277
38.745
39.5754
40.0556
40.6553
40.8474
41.4606
14.6447
14.954
15.4273
16.4564
17.6088
18.829
19.9697
21.077
22.0336
22.9484
23.6896
24.4159
24.9564
25.5276
25.8918
26.354
26.546
27.0015
14.7184
14.6387
14.6737
14.8757
15.2175
15.6834
16.1627
16.6724
17.1383
17.6109
18.0104
18.4208
18.7385
19.0881
19.3206
19.6259
19.7607
20.0836
14.7545
14.5907
14.4691
14.4209
14.4418
14.5153
14.6476
14.8246
15.0022
15.2023
15.3793
15.5761
15.7326
15.9151
16.0396
16.2094
16.2876
16.4796
14.7641
14.5919
14.4345
14.3029
14.2031
14.1371
14.0973
14.0987
14.1107
14.1415
14.1783
14.2346
14.2793
14.3427
14.3851
14.4504
14.4805
14.5626
14.7656
14.5942
14.432
14.2828
14.1465
14.0296
13.9256
13.8437
13.7744
13.7224
13.6771
13.6482
13.6204
13.6063
13.5891
13.584
13.5722
13.5818
14.7657
14.5945
14.4323
14.2806
14.137
14.0051
13.8816
13.7705
13.6679
13.5777
13.4938
13.4219
13.3537
13.2971
13.2406
13.1973
13.1473
13.1179
14.7657
14.5944
14.4323
14.2801
14.1357
14.0007
13.8728
13.754
13.6417
13.5385
13.4409
13.3523
13.2677
13.1922
13.1185
13.0549
12.9895
12.9368
14.7657
14.5941
14.4321
14.2796
14.1353
13.9995
13.8707
13.7496
13.6347
13.5271
13.4247
13.3294
13.2383
13.1542
13.0731
12.999
12.9266
12.8616
14.7657
14.594
14.4319
14.2792
14.1349
13.9987
13.8698
13.7481
13.6326
13.5236
13.4201
13.3224
13.2294
13.1417
13.0581
12.9795
12.9043
12.8337
14.7657
14.5938
14.4317
14.2789
14.1345
13.9981
13.8691
13.7471
13.6315
13.5221
13.4183
13.32
13.2265
13.1379
13.0536
12.9737
12.8975
12.8253
14.7657
14.5938
14.4316
14.2786
14.1341
13.9976
13.8685
13.7463
13.6306
13.5211
13.4171
13.3185
13.2249
13.136
13.0515
12.9713
12.8948
12.8222
14.7657
14.5937
14.4315
14.2784
14.1338
13.9972
13.868
13.7457
13.6299
13.5202
13.4162
13.3174
13.2237
13.1347
13.0501
12.9696
12.8931
12.8203
14.7657
14.5937
14.4314
14.2783
14.1336
13.9969
13.8677
13.7453
13.6294
13.5196
13.4155
13.3167
13.2228
13.1337
13.049
12.9685
12.8919
12.819
14.7657
14.5937
14.4314
14.2782
14.1336
13.9969
13.8675
13.7451
13.6292
13.5194
13.4152
13.3163
13.2224
13.1333
13.0485
12.9679
12.8913
12.8184
14.7657
14.5937
14.4315
14.2783
14.1337
13.997
13.8677
13.7453
13.6294
13.5196
13.4154
13.3166
13.2227
13.1336
13.0489
12.9683
12.8917
12.8188
14.7657
14.5937
14.4316
14.2785
14.1339
13.9972
13.868
13.7457
13.63
13.5202
13.4163
13.3176
13.2241
13.1352
13.051
12.9708
12.8948
12.8224
14.7657
14.5938
14.4317
14.2786
14.1343
13.9977
13.869
13.7472
13.6325
13.524
13.4219
13.3252
13.2344
13.1482
13.0676
12.9907
12.9192
12.8504
14.7657
14.5937
14.4319
14.2789
14.1361
14.002
13.8782
13.7628
13.6573
13.5595
13.4707
13.3883
13.3141
13.2446
13.1829
13.1237
13.0729
13.0213
14.7644
14.5922
14.4335
14.2871
14.1628
14.0551
13.9689
13.8978
13.8459
13.8048
13.7783
13.758
13.7482
13.7415
13.7422
13.7433
13.7528
13.7516
14.7478
14.5944
14.4764
14.4101
14.4234
14.4613
14.5554
14.6706
14.8169
14.9612
15.1237
15.2711
15.4319
15.5683
15.7196
15.8372
15.978
16.0719
14.6504
14.7821
14.9369
15.3416
15.9227
16.5508
17.2338
17.878
18.5377
19.1216
19.7127
20.2095
20.72
21.1247
21.5587
21.8755
22.2452
22.4805
14.572
16.1273
17.9726
20.4196
22.9236
25.2654
27.5467
29.5525
31.4905
33.1025
34.6855
35.9137
37.1756
38.0655
39.0607
39.6723
40.4608
40.8521
16.5442
25.8796
36.7208
46.5546
55.8657
64.2733
72.1012
78.7409
84.8016
89.5901
94.0126
97.1741
100.312
102.189
104.451
105.414
107.132
107.488
45.7965
105.211
164.439
217.233
267.842
313.448
353.657
386.102
413.216
433.649
450.586
462.692
472.879
479.758
486.797
490.285
496.128
497.461
632.343
1081.16
1534.74
1880.99
2183.47
2431.77
2631.53
2773.03
2876.15
2932.21
2969.07
2970.17
2963.16
2946.23
2918.32
2885.07
2849.27
2811.95
0.172373
0.173136
0.299677
0.438073
0.572481
0.696345
0.80808
0.907992
0.997437
1.08414
1.17227
1.26297
1.35899
1.46273
1.57563
1.69803
1.82999
1.97271
2.13204
2.32489
2.57404
2.87888
3.23387
3.6411
4.10767
4.64288
5.25727
5.96114
6.76343
7.66885
8.68018
9.80127
11.0329
12.3739
13.8235
15.3803
17.0433
18.8116
20.6845
22.6623
24.746
26.9384
29.244
31.6707
34.2303
36.9406
39.8281
42.9317
46.1656
49.555
53.0924
56.7889
60.645
64.6676
68.8596
73.2265
77.7722
82.5013
87.4177
92.5258
97.8292
103.332
109.036
114.946
121.064
127.392
133.932
140.685
147.653
154.836
162.234
169.846
177.672
185.708
193.954
202.405
211.058
219.909
228.953
238.184
247.595
257.179
266.928
276.835
286.889
297.08
307.397
317.83
328.364
338.988
349.686
360.443
371.241
382.061
392.882
403.68
414.431
425.106
435.678
446.124
456.44
466.663
476.812
486.792
496.633
506.305
515.8
525.098
534.183
543.039
551.649
559.998
568.069
575.848
583.319
590.47
597.284
603.752
609.859
615.594
620.947
625.907
630.464
634.611
638.338
641.643
644.519
646.962
648.967
650.532
651.644
652.357
652.674
652.47
651.762
650.608
649.13
647.274
644.931
642.194
639.051
635.52
631.608
627.33
622.7
617.725
612.42
606.8
600.878
594.672
588.195
581.466
574.5
567.314
559.927
552.355
544.616
536.728
528.71
520.579
512.356
504.063
495.73
487.413
479.359
473.549
470.164
467.022
463.877
460.711
457.524
454.32
451.094
447.835
444.508
441.037
437.265
432.714
426.488
402.276
0.670386
0.396179
0.359572
0.373841
0.40863
0.454627
0.5084
0.569352
0.638492
0.717778
0.808314
0.910773
1.02658
1.15747
1.30527
1.47181
1.65915
1.86977
2.10668
2.37252
2.67514
3.01815
3.40275
3.83078
4.30486
4.82751
5.40014
6.02152
6.68557
7.38727
8.13316
8.92247
9.75458
10.6278
11.5427
12.4969
13.4888
14.5195
15.5904
16.7035
17.8611
19.0663
20.3224
21.633
23.0019
24.4327
25.9279
27.4875
29.1058
30.7878
32.5334
34.3452
36.2243
38.1726
40.1913
42.2821
44.4461
46.6848
48.9993
51.3905
53.8595
56.4072
59.0341
61.741
64.5281
67.396
70.3445
73.3739
76.4837
79.6737
82.9433
86.2917
89.7179
93.2208
96.7989
100.451
104.175
107.968
111.829
115.755
119.743
123.791
127.895
132.051
136.255
140.505
144.794
149.119
153.475
157.856
162.256
166.669
171.088
175.506
179.914
184.306
188.674
193.01
197.311
201.58
205.833
210.105
214.405
218.638
222.818
226.934
230.981
234.952
238.841
242.641
246.346
249.949
253.446
256.828
260.092
263.23
266.239
269.112
271.844
274.431
276.869
279.153
281.278
283.242
285.042
286.675
288.138
289.429
290.548
291.491
292.259
292.856
293.274
293.496
293.529
293.389
293.101
292.648
292.01
291.205
290.232
289.097
287.801
286.351
284.749
283
281.108
279.08
276.919
274.632
272.225
269.703
267.073
264.341
261.513
258.598
255.6
252.528
249.388
246.188
242.936
239.64
236.313
232.977
229.715
226.895
224.575
222.369
220.183
217.999
215.818
213.642
211.473
209.313
207.162
205.022
202.878
200.767
198.598
194.953
1.44703
0.708429
0.559531
0.53009
0.541515
0.57546
0.625978
0.690864
0.769861
0.864082
0.974888
1.10362
1.25162
1.42017
1.61052
1.824
2.06209
2.32662
2.61988
2.94487
3.3009
3.68738
4.10402
4.55032
5.02566
5.52944
6.06139
6.62226
7.21548
7.84412
8.50444
9.19655
9.9214
10.6791
11.458
12.2648
13.1069
13.9862
14.9043
15.8628
16.8633
17.9071
18.9959
20.1311
21.3139
22.5454
23.8266
25.1578
26.5387
27.9707
29.4549
30.9923
32.5839
34.2307
35.9337
37.6939
39.512
41.389
43.3257
45.3224
47.3798
49.4984
51.6786
53.9208
56.2252
58.592
61.0212
63.5128
66.0665
68.682
71.3589
74.0967
76.8944
79.7514
82.6665
85.6386
88.6663
91.748
94.882
98.0666
101.299
104.579
107.901
111.265
114.667
118.104
121.572
125.069
128.59
132.132
135.691
139.261
142.838
146.419
149.997
153.57
157.134
160.685
164.224
167.752
171.272
174.788
178.282
181.734
185.142
188.5
191.801
195.042
198.216
201.318
204.343
207.287
210.143
212.907
215.574
218.14
220.599
222.949
225.184
227.301
229.297
231.167
232.908
234.518
235.994
237.334
238.536
239.598
240.518
241.296
241.931
242.423
242.768
242.95
242.992
242.896
242.665
242.296
241.782
241.131
240.344
239.423
238.372
237.194
235.893
234.472
232.934
231.285
229.528
227.669
225.711
223.659
221.519
219.296
216.996
214.623
212.183
209.682
207.125
204.52
201.871
199.187
196.476
193.756
191.07
188.546
186.215
183.96
181.732
179.518
177.315
175.127
172.958
170.812
168.697
166.627
164.618
162.748
161.024
159.315
2.2596
1.01562
0.778081
0.721633
0.724672
0.759055
0.815824
0.892041
0.987195
1.1019
1.2372
1.3942
1.57384
1.77685
2.00371
2.25477
2.53029
2.83051
3.15559
3.50545
3.87942
4.27677
4.69702
5.13997
5.6058
6.09508
6.60879
7.1483
7.71517
8.31039
8.934
9.58625
10.2671
10.9766
11.724
12.5095
13.3319
14.1921
15.0914
16.0313
17.0129
18.0363
19.1024
20.212
21.3656
22.5632
23.8044
25.0905
26.4237
27.8051
29.2357
30.7163
32.2481
33.8318
35.4685
37.159
38.9042
40.705
42.5621
44.4761
46.4476
48.4773
50.5657
52.7132
54.9202
57.187
59.5138
61.9008
64.3479
66.8551
69.4221
72.0485
74.7339
77.4776
80.2788
83.1366
86.0498
89.0171
92.0371
95.1082
98.2284
101.396
104.608
107.863
111.157
114.488
117.854
121.249
124.673
128.119
131.585
135.068
138.562
142.064
145.569
149.076
152.579
156.077
159.566
163.046
166.515
169.964
173.385
176.766
180.103
183.39
186.623
189.794
192.9
195.933
198.89
201.765
204.553
207.249
209.848
212.345
214.736
217.017
219.183
221.231
223.158
224.958
226.631
228.172
229.58
230.851
231.985
232.979
233.833
234.545
235.114
235.542
235.817
235.932
235.926
235.775
235.486
235.059
234.493
233.791
232.955
231.989
230.896
229.678
228.341
226.886
225.319
223.644
221.865
219.986
218.013
215.95
213.803
211.577
209.277
206.908
204.477
201.988
199.448
196.861
194.236
191.578
188.896
186.204
183.531
180.934
178.434
175.99
173.574
171.177
168.8
166.444
164.116
161.823
159.575
157.391
155.299
153.372
151.635
150.107
2.98125
1.30885
1.00515
0.930827
0.929764
0.96771
1.0329
1.12119
1.23146
1.36379
1.51873
1.69683
1.89841
2.12348
2.37175
2.64272
2.9358
3.25035
3.58582
3.94167
4.31751
4.71319
5.12891
5.56525
6.02314
6.50381
7.00867
7.53919
8.09681
8.68274
9.29808
9.94394
10.6216
11.3329
12.08
12.8638
13.6849
14.544
15.4417
16.3788
17.356
18.3746
19.4356
20.5398
21.6879
22.8812
24.121
25.4082
26.743
28.1264
29.5593
31.0429
32.5782
34.1662
35.808
37.5048
39.2574
41.067
42.9348
44.8617
46.8481
48.895
51.0031
53.1731
55.4056
57.7014
60.0608
62.4843
64.9721
67.5245
70.1414
72.8228
75.5684
78.3778
81.2505
84.1857
87.1825
90.2398
93.3561
96.53
99.7598
103.043
106.378
109.763
113.194
116.668
120.183
123.735
127.32
130.936
134.577
138.24
141.92
145.614
149.317
153.025
156.733
160.438
164.135
167.819
171.483
175.121
178.725
182.289
185.806
189.269
192.674
196.013
199.281
202.471
205.579
208.598
211.522
214.347
217.067
219.676
222.17
224.545
226.796
228.918
230.909
232.763
234.479
236.054
237.483
238.767
239.901
240.886
241.719
242.4
242.928
243.302
243.506
243.563
243.476
243.237
242.85
242.315
241.634
240.81
239.846
238.744
237.509
236.144
234.654
233.043
231.314
229.474
227.526
225.477
223.331
221.093
218.77
216.367
213.889
211.343
208.735
206.07
203.354
200.595
197.797
194.969
192.119
189.258
186.407
183.597
180.843
178.131
175.447
172.789
170.156
167.554
164.988
162.467
160.005
157.626
155.359
153.274
151.39
149.686
3.58137
1.59251
1.23431
1.14571
1.14227
1.18403
1.25674
1.35499
1.47684
1.62175
1.78969
1.98061
2.19427
2.43016
2.68752
2.96548
3.26315
3.57981
3.91492
4.26824
4.63987
5.03022
5.44007
5.87051
6.32283
6.79849
7.29901
7.8259
8.38062
8.96452
9.57893
10.2252
10.9046
11.6185
12.3683
13.1549
13.9792
14.8422
15.7445
16.6873
17.6714
18.6979
19.7679
20.8823
22.0422
23.2487
24.5029
25.8058
27.1585
28.562
30.0177
31.5266
33.0902
34.7097
36.3864
38.1216
39.9165
41.7725
43.6906
45.672
47.7183
49.8307
52.0104
54.2584
56.5759
58.9637
61.4227
63.9536
66.5571
69.2337
71.9836
74.8072
77.7044
80.6749
83.7186
86.8346
90.0223
93.2805
96.6079
100.003
103.464
106.989
110.575
114.22
117.921
121.674
125.477
129.325
133.214
137.141
141.1
145.088
149.099
153.128
157.17
161.221
165.273
169.323
173.363
177.387
181.388
185.359
189.293
193.181
197.017
200.794
204.505
208.143
211.701
215.173
218.552
221.831
225.003
228.064
231.007
233.826
236.515
239.071
241.487
243.759
245.883
247.856
249.673
251.331
252.829
254.162
255.331
256.332
257.165
257.829
258.325
258.643
258.779
258.763
258.579
258.23
257.717
257.043
256.209
255.22
254.079
252.788
251.354
249.78
248.071
246.232
244.268
242.185
239.989
237.684
235.278
232.776
230.185
227.511
224.76
221.938
219.053
216.111
213.119
210.082
207.01
203.908
200.784
197.651
194.522
191.418
188.351
185.319
182.317
179.344
176.404
173.501
170.644
167.844
165.115
162.483
159.978
157.661
155.538
153.527
4.05868
1.85119
1.4538
1.35455
1.34941
1.39396
1.47197
1.57686
1.70593
1.858
2.03251
2.22897
2.44679
2.6852
2.94332
3.22026
3.51527
3.82782
4.15769
4.50501
4.87027
5.25426
5.65806
6.08294
6.53034
7.00173
7.49862
8.02251
8.57483
9.15697
9.77028
10.4161
11.0956
11.8103
12.5611
13.3493
14.1758
15.0419
15.9486
16.8969
17.8881
18.9233
20.0037
21.1305
22.305
23.5284
24.802
26.1273
27.5054
28.9381
30.4266
31.9727
33.5779
35.2438
36.972
38.7643
40.6223
42.5476
44.5419
46.6069
48.7443
50.9558
53.243
55.6074
58.0505
60.5736
63.178
65.8649
68.6352
71.4898
74.4294
77.4544
80.5651
83.7615
87.0435
90.4105
93.8619
97.3966
101.013
104.71
108.486
112.337
116.262
120.258
124.32
128.447
132.632
136.874
141.165
145.503
149.881
154.295
158.737
163.203
167.687
172.18
176.678
181.173
185.656
190.122
194.56
198.964
203.325
207.634
211.885
216.068
220.175
224.2
228.134
231.968
235.697
239.311
242.804
246.169
249.399
252.488
255.43
258.218
260.847
263.313
265.611
267.736
269.685
271.454
273.04
274.442
275.657
276.683
277.52
278.168
278.624
278.877
278.944
278.83
278.53
278.045
277.379
276.534
275.514
274.322
272.962
271.44
269.76
267.927
265.948
263.828
261.573
259.19
256.685
254.064
251.336
248.505
245.581
242.569
239.477
236.313
233.083
229.795
226.456
223.074
219.656
216.21
212.745
209.27
205.797
202.343
198.916
195.521
192.158
188.829
185.539
182.296
179.107
175.986
172.949
170.02
167.23
164.629
162.206
159.837
4.47954
2.09444
1.66145
1.55054
1.54193
1.58669
1.66687
1.77472
1.90675
2.06122
2.23713
2.4337
2.65016
2.88572
3.13959
3.41107
3.69965
4.0051
4.3275
4.66726
5.02509
5.40198
5.7991
6.21777
6.65939
7.1254
7.61729
8.13651
8.68449
9.26264
9.87232
10.5149
11.1917
11.904
12.653
13.4399
14.2661
15.133
16.0419
16.994
17.9908
19.0337
20.1238
21.263
22.4528
23.6946
24.99
26.3406
27.7484
29.2151
30.7428
32.3334
33.9889
35.7114
37.5029
39.3655
41.3014
43.3127
45.4016
47.5703
49.821
52.1559
54.577
57.0864
59.686
62.3777
65.1632
68.0441
71.0219
74.0976
77.2725
80.5472
83.9223
87.398
90.9743
94.6508
98.4268
102.301
106.273
110.34
114.499
118.75
123.087
127.509
132.011
136.589
141.238
145.953
150.729
155.56
160.44
165.362
170.32
175.306
180.312
185.331
190.355
195.374
200.381
205.366
210.32
215.233
220.096
224.9
229.635
234.293
238.864
243.338
247.708
251.963
256.095
260.097
263.958
267.672
271.232
274.628
277.856
280.908
283.778
286.462
288.953
291.247
293.34
295.229
296.91
298.382
299.641
300.688
301.522
302.141
302.542
302.718
302.692
302.457
302.014
301.366
300.515
299.467
298.223
296.791
295.173
293.377
291.408
289.273
286.977
284.529
281.934
279.201
276.336
273.349
270.245
267.034
263.723
260.321
256.835
253.274
249.645
245.958
242.22
238.439
234.623
230.781
226.921
223.052
219.187
215.336
211.511
207.717
203.958
200.239
196.567
192.948
189.394
185.918
182.537
179.275
176.161
173.235
170.473
167.721
5.37076
2.41498
1.87929
1.7365
1.71611
1.75573
1.83392
1.94093
2.07219
2.2253
2.39885
2.59187
2.80354
3.03312
3.28
3.54371
3.82399
4.12086
4.4346
4.76579
5.11526
5.48406
5.87339
6.28453
6.71877
7.17733
7.66184
8.1738
8.71467
9.28589
9.88891
10.5252
11.1962
11.9036
12.6485
13.4323
14.2561
15.1217
16.0304
16.9841
17.9843
19.0329
20.1322
21.284
22.4898
23.7515
25.0707
26.4495
27.8902
29.3955
30.9679
32.6098
34.3236
36.1121
37.9777
39.9231
41.951
44.0641
46.2653
48.5572
50.9426
53.4243
56.0049
58.687
61.4732
64.3658
67.3671
70.4792
73.7038
77.0426
80.4971
84.0682
87.7567
91.5632
95.4875
99.5294
103.688
107.963
112.351
116.852
121.461
126.178
130.996
135.914
140.926
146.027
151.212
156.474
161.807
167.204
172.659
178.162
183.706
189.282
194.881
200.495
206.112
211.723
217.318
222.886
228.417
233.899
239.322
244.675
249.948
255.13
260.211
265.179
270.025
274.74
279.311
283.731
287.99
292.079
295.99
299.714
303.244
306.572
309.693
312.6
315.287
317.75
319.985
321.988
323.755
325.284
326.575
327.625
328.435
329.004
329.323
329.403
329.25
328.863
328.244
327.398
326.328
325.038
323.533
321.82
319.904
317.792
315.491
313.008
310.352
307.53
304.551
301.422
298.153
294.752
291.228
287.59
283.847
280.009
276.084
272.082
268.011
263.881
259.699
255.476
251.22
246.939
242.643
238.341
234.043
229.761
225.505
221.282
217.099
212.961
208.877
204.856
200.909
197.05
193.296
189.672
186.201
182.919
179.788
176.638
6.42341
2.75614
2.08946
1.90375
1.86581
1.89593
1.96856
2.07157
2.19912
2.34813
2.51681
2.70401
2.90888
3.13079
3.36927
3.62404
3.89506
4.18252
4.48682
4.80852
5.14842
5.5078
5.88796
6.29034
6.71663
7.16806
7.64554
8.15041
8.68409
9.24807
9.84383
10.4729
11.1368
11.8371
12.5752
13.3528
14.1718
15.034
15.9414
16.8959
17.8996
18.9544
20.0621
21.2252
22.4459
23.7268
25.0706
26.4814
27.9599
29.5098
31.1342
32.8361
34.6187
36.485
38.4383
40.4819
42.619
44.853
47.1874
49.6256
52.1709
54.8269
57.5967
60.4837
63.4909
66.6213
69.8777
73.2626
76.7782
80.4267
84.2096
88.1283
92.1837
96.3763
100.706
105.173
109.776
114.513
119.383
124.383
129.509
134.759
140.127
145.61
151.201
156.894
162.683
168.56
174.518
180.549
186.644
192.792
198.986
205.214
211.466
217.73
223.997
230.252
236.486
242.686
248.839
254.934
260.957
266.897
272.742
278.479
284.098
289.585
294.93
300.121
305.148
309.998
314.663
319.133
323.397
327.448
331.276
334.875
338.236
341.354
344.224
346.838
349.195
351.289
353.117
354.679
355.971
356.994
357.747
358.23
358.439
358.384
358.065
357.486
356.652
355.567
354.235
352.661
350.852
348.815
346.557
344.085
341.409
338.536
335.475
332.237
328.829
325.262
321.546
317.69
313.705
309.6
305.386
301.072
296.67
292.189
287.638
283.028
278.368
273.668
268.937
264.185
259.42
254.652
249.893
245.152
240.439
235.763
231.132
226.553
222.036
217.59
213.228
208.963
204.814
200.802
196.951
193.288
189.767
186.212
7.44901
3.07467
2.27532
2.04419
1.98628
2.00439
2.06905
2.16578
2.28753
2.43058
2.59278
2.7728
2.96978
3.18316
3.41256
3.65775
3.91886
4.19641
4.4912
4.80441
5.13659
5.48834
5.8607
6.25482
6.67177
7.1126
7.57881
8.07216
8.59425
9.14668
9.73108
10.3491
11.0026
11.6931
12.4228
13.1935
14.0076
14.8671
15.7742
16.731
17.7402
18.804
19.9251
21.1063
22.3507
23.6609
25.0399
26.4894
28.0138
29.618
31.3062
33.0822
34.9494
36.9116
38.9726
41.1364
43.407
45.7886
48.2853
50.9013
53.6407
56.5075
59.5058
62.6395
65.9122
69.3275
72.8886
76.5985
80.4598
84.4748
88.6455
92.9732
97.4588
102.103
106.905
111.865
116.981
122.251
127.673
133.244
138.958
144.813
150.802
156.92
163.159
169.513
175.973
182.531
189.177
195.902
202.695
209.546
216.442
223.372
230.323
237.284
244.24
251.178
258.085
264.947
271.75
278.48
285.124
291.667
298.096
304.398
310.56
316.568
322.41
328.073
333.545
338.815
343.871
348.703
353.3
357.654
361.754
365.594
369.166
372.462
375.478
378.208
380.647
382.792
384.64
386.189
387.439
388.39
389.04
389.392
389.445
389.205
388.671
387.852
386.754
385.382
383.74
381.834
379.674
377.266
374.619
371.743
368.646
365.339
361.831
358.134
354.257
350.212
346.01
341.662
337.178
332.571
327.851
323.029
318.117
313.125
308.065
302.946
297.78
292.576
287.344
282.094
276.837
271.581
266.337
261.116
255.928
250.782
245.686
240.651
235.685
230.799
226.005
221.319
216.758
212.342
208.091
204.03
200.107
196.144
8.40375
3.35735
2.43068
2.15481
2.07612
2.08096
2.13615
2.22508
2.33964
2.47553
2.63027
2.80233
2.99077
3.19529
3.4159
3.65307
3.90659
4.17647
4.46307
4.76671
5.08794
5.42818
5.78864
6.17053
6.57511
7.00388
7.45864
7.94075
8.45181
8.99353
9.5677
10.1762
10.8211
11.5045
12.2285
12.9956
13.8081
14.6686
15.5797
16.5444
17.5653
18.6455
19.7882
20.9966
22.2751
23.6257
25.0511
26.554
28.1424
29.8205
31.5933
33.4666
35.4446
37.5315
39.7318
42.0503
44.4918
47.0614
49.7638
52.6041
55.587
58.7174
61.9999
65.439
69.0389
72.8036
76.7368
80.8415
85.1208
89.5768
94.2115
99.0261
104.021
109.197
114.553
120.087
125.798
131.683
137.738
143.959
150.34
156.877
163.561
170.386
177.343
184.424
191.619
198.917
206.307
213.779
221.318
228.914
236.552
244.219
251.9
259.581
267.248
274.884
282.476
290.006
297.461
304.825
312.081
319.216
326.215
333.062
339.743
346.244
352.551
358.652
364.532
370.18
375.584
380.732
385.613
390.219
394.539
398.565
402.29
405.707
408.81
411.594
414.055
416.19
417.996
419.471
420.617
421.432
421.919
422.078
421.916
421.429
420.621
419.504
418.086
416.37
414.363
412.073
409.509
406.681
403.597
400.268
396.706
392.921
388.925
384.728
380.344
375.785
371.061
366.187
361.174
356.034
350.779
345.422
339.975
334.449
328.857
323.208
317.515
311.789
306.039
300.276
294.51
288.751
283.01
277.297
271.622
265.996
260.427
254.926
249.502
244.168
238.934
233.818
228.834
224.003
219.342
214.874
210.542
206.174
9.2641
3.5992
2.55433
2.23611
2.13612
2.12778
2.17259
2.25276
2.35917
2.48718
2.63431
2.79932
2.98116
3.17891
3.39211
3.62028
3.86349
4.12247
4.3978
4.6902
5.00088
5.33073
5.68079
6.0523
6.44662
6.86529
7.30997
7.78236
8.28425
8.81757
9.3844
9.98692
10.6275
11.3086
12.0329
12.8031
13.622
14.4926
15.4183
16.4027
17.4494
18.5614
19.7421
20.9948
22.3209
23.7272
25.2202
26.8064
28.4908
30.2786
32.1754
34.1875
36.3206
38.5799
40.971
43.4996
46.1714
48.9923
51.9678
55.1036
58.4053
61.8783
65.5275
69.3581
73.3744
77.5806
81.9804
86.577
91.373
96.3704
101.57
106.974
112.581
118.39
124.4
130.608
137.012
143.606
150.386
157.346
164.479
171.777
179.233
186.836
194.577
202.445
210.429
218.515
226.691
234.944
243.259
251.622
260.018
268.431
276.845
285.243
293.61
301.929
310.183
318.355
326.429
334.387
342.213
349.891
357.405
364.74
371.879
378.808
385.512
391.978
398.192
404.141
409.812
415.195
420.277
425.05
429.504
433.631
437.422
440.873
443.976
446.728
449.125
451.164
452.843
454.162
455.122
455.722
455.966
455.861
455.407
454.594
453.443
451.962
450.157
448.035
445.602
442.87
439.847
436.545
432.974
429.146
425.073
420.768
416.243
411.511
406.585
401.478
396.204
390.777
385.208
379.513
373.703
367.792
361.792
355.717
349.578
343.388
337.158
330.899
324.622
318.339
312.059
305.792
299.55
293.342
287.179
281.071
275.029
269.062
263.18
257.396
251.722
246.173
240.765
235.516
230.442
225.564
220.825
216.062
10.0197
3.7993
2.64728
2.2901
2.16934
2.14818
2.18235
2.25385
2.35341
2.47518
2.6159
2.77344
2.94659
3.13506
3.33867
3.55746
3.79185
4.04211
4.3088
4.59267
4.8947
5.21594
5.55761
5.92107
6.30785
6.71965
7.15831
7.62577
8.1241
8.65554
9.22251
9.82761
10.4737
11.1641
11.902
12.6903
13.5324
14.4317
15.3917
16.415
17.5044
18.6663
19.9065
21.2303
22.645
24.1552
25.7675
27.4885
29.3244
31.2817
33.3675
35.5892
37.9525
40.4643
43.1315
45.9612
48.9599
52.1341
55.49
59.0336
62.771
66.7076
70.8488
75.1992
79.7633
84.5446
89.5465
94.7712
100.22
105.895
111.796
117.921
124.27
130.839
137.626
144.626
151.834
159.244
166.849
174.64
182.609
190.747
199.042
207.483
216.058
224.755
233.559
242.456
251.431
260.469
269.554
278.67
287.8
296.927
306.033
315.101
324.112
333.05
341.896
350.632
359.241
367.705
376.007
384.13
392.056
399.77
407.257
414.499
421.484
428.197
434.623
440.75
446.566
452.059
457.218
462.035
466.499
470.602
474.339
477.703
480.689
483.293
485.511
487.343
488.787
489.843
490.514
490.8
490.71
490.25
489.399
488.183
486.609
484.686
482.422
479.823
476.899
473.662
470.123
466.293
462.185
457.812
453.186
448.322
443.233
437.933
432.436
426.757
420.91
414.909
408.769
402.504
396.127
389.652
383.093
376.464
369.776
363.042
356.275
349.485
342.685
335.885
329.095
322.327
315.59
308.895
302.253
295.673
289.166
282.741
276.411
270.186
264.079
258.105
252.279
246.619
241.137
235.855
230.717
225.573
10.6606
3.95586
2.71065
2.31941
2.17999
2.14734
2.17321
2.23734
2.32865
2.44205
2.57454
2.72432
2.89043
3.07213
3.26914
3.48148
3.70946
3.95354
4.21442
4.49293
4.79012
5.1072
5.44558
5.80685
6.1928
6.60552
7.04754
7.5211
8.02847
8.57235
9.15568
9.78147
10.4527
11.1719
11.9412
12.7666
13.6529
14.6051
15.6283
16.7283
17.9112
19.1824
20.5482
22.0157
23.5926
25.2857
27.1025
29.0506
31.1376
33.3713
35.7599
38.3114
41.0334
43.9342
47.0222
50.3057
53.792
57.4872
61.3976
65.5287
69.8861
74.4745
79.2983
84.3613
89.6664
95.2158
101.011
107.052
113.339
119.871
126.645
133.658
140.907
148.385
156.088
164.008
172.137
180.467
188.988
197.689
206.56
215.588
224.761
234.064
243.484
253.006
262.614
272.292
282.024
291.793
301.582
311.373
321.149
330.891
340.581
350.2
359.73
369.153
378.451
387.604
396.596
405.408
414.022
422.423
430.592
438.514
446.173
453.553
460.641
467.423
473.885
480.014
485.798
491.228
496.292
500.982
505.289
509.206
512.728
515.848
518.564
520.871
522.768
524.253
525.328
525.991
526.251
526.111
525.578
524.632
523.297
521.581
519.494
517.045
514.241
511.093
507.61
503.807
499.694
495.284
490.592
485.631
480.415
474.959
469.278
463.386
457.299
451.031
444.599
438.016
431.298
424.461
417.517
410.482
403.369
396.192
388.964
381.699
374.407
367.102
359.794
352.495
345.214
337.962
330.75
323.588
316.486
309.454
302.502
295.641
288.881
282.234
275.712
269.33
263.102
257.045
251.17
245.5
239.978
234.477
11.2375
4.08193
2.75195
2.33036
2.17479
2.13182
2.14748
2.20271
2.28694
2.39429
2.52145
2.66646
2.82821
3.00604
3.19975
3.40943
3.63553
3.87883
4.14047
4.4213
4.72258
5.04586
5.39291
5.76567
6.16623
6.59662
7.05834
7.5541
8.0881
8.66419
9.28635
9.95878
10.6861
11.4735
12.3268
13.2511
14.2522
15.3369
16.5121
17.7857
19.1653
20.6589
22.2748
24.0218
25.9089
27.9449
30.1391
32.5005
35.0381
37.7607
40.6764
43.7916
47.1172
50.6629
54.4389
58.4569
62.7228
67.2394
72.0101
77.0383
82.3271
87.8785
93.6942
99.7745
106.119
112.727
119.596
126.722
134.102
141.73
149.601
157.707
166.042
174.596
183.361
192.326
201.48
210.813
220.311
229.961
239.752
249.667
259.693
269.814
280.015
290.28
300.591
310.934
321.289
331.64
341.97
352.259
362.492
372.648
382.711
392.662
402.482
412.155
421.662
430.985
440.107
449.012
457.681
466.099
474.249
482.116
489.686
496.944
503.875
510.469
516.711
522.591
528.096
533.219
537.949
542.278
546.2
549.709
552.799
555.466
557.709
559.523
560.91
561.868
562.401
562.501
562.211
561.485
560.341
558.792
556.846
554.512
551.8
548.721
545.281
541.494
537.371
532.926
528.171
523.122
517.792
512.195
506.347
500.264
493.96
487.451
480.753
473.882
466.853
459.682
452.385
444.976
437.47
429.883
422.227
414.516
406.765
398.985
391.19
383.39
375.598
367.823
360.076
352.367
344.706
337.103
329.569
322.112
314.742
307.471
300.307
293.263
286.351
279.584
272.977
266.544
260.296
254.258
248.372
242.543
11.7653
4.18231
2.7746
2.32686
2.15748
2.10508
2.1146
2.16563
2.24699
2.35274
2.47965
2.62589
2.7902
2.97206
3.17143
3.38861
3.62415
3.87865
4.15206
4.44688
4.76527
5.1095
5.48208
5.88582
6.32388
6.79988
7.31832
7.8835
8.49988
9.17276
9.90801
10.7121
11.592
12.5555
13.6107
14.7657
16.0294
17.4113
18.9213
20.57
22.368
24.3263
26.4558
28.7675
31.2724
33.981
36.9036
40.0503
43.4306
47.053
50.9252
55.054
59.4478
64.1141
69.0607
74.2959
79.8194
85.6287
91.7218
98.0963
104.749
111.677
118.875
126.338
134.06
142.033
150.251
158.704
167.385
176.282
185.387
194.688
204.175
213.835
223.658
233.631
243.741
253.975
264.32
274.761
285.285
295.876
306.521
317.204
327.909
338.622
349.326
360.005
370.644
381.225
391.733
402.151
412.463
422.651
432.7
442.592
452.312
461.842
471.167
480.27
489.135
497.748
506.093
514.154
521.917
529.368
536.493
543.28
549.717
555.791
561.493
566.811
571.736
576.259
580.374
584.073
587.35
590.201
592.623
594.61
596.166
597.285
597.97
598.22
598.046
597.456
596.419
594.97
593.109
590.843
588.182
585.136
581.717
577.934
573.795
569.314
564.505
559.38
553.956
548.244
542.262
536.022
529.543
522.837
515.923
508.815
501.529
494.082
486.489
478.766
470.929
462.992
454.97
446.878
438.73
430.539
422.318
414.081
405.838
397.601
389.381
381.189
373.034
364.926
356.874
348.888
340.977
333.15
325.417
317.787
310.271
302.879
295.624
288.517
281.573
274.805
268.225
261.856
255.643
249.53
12.222
4.25139
2.78116
2.31568
2.1385
2.08385
2.09401
2.14793
2.23408
2.34632
2.48098
2.63553
2.80981
3.00388
3.2182
3.45364
3.71152
3.99365
4.30268
4.6409
5.01147
5.41803
5.86476
6.3564
6.89841
7.49704
8.15935
8.89265
9.70472
10.6043
11.6013
12.7063
13.9308
15.2871
16.7876
18.4453
20.2735
22.2863
24.4979
26.9222
29.5724
32.4615
35.6021
39.006
42.6838
46.644
50.8941
55.4408
60.2907
65.4469
70.9103
76.6818
82.7652
89.16
95.8704
102.885
110.186
117.764
125.61
133.712
142.061
150.645
159.452
168.471
177.689
187.094
196.676
206.421
216.318
226.355
236.52
246.801
257.188
267.668
278.229
288.86
299.549
310.285
321.055
331.846
342.647
353.445
364.228
374.982
385.695
396.353
406.944
417.454