/*--------------------------------*- C++ -*----------------------------------*\
| =========                 |                                                 |
| \\      /  F ield         | OpenFOAM: The Open Source CFD Toolbox           |
|  \\    /   O peration     | Version:  v2006                                 |
|   \\  /    A nd           | Website:  www.openfoam.com                      |
|    \\/     M anipulation  |                                                 |
\*---------------------------------------------------------------------------*/
FoamFile
{
    version     2.0;
    format      ascii;
    class       volScalarField;
    location    "280";
    object      k;
}
// * * * * * * * * * * * * * * * * * * * * * * * * * * * * * * * * * * * * * //

dimensions      [0 2 -2 0 0 0 0];


internalField   nonuniform List<scalar> 
12225
(
0.571497
0.987649
1.28116
1.45558
1.54167
1.57742
1.57566
1.56723
1.54713
1.52372
1.50045
1.478
1.45793
1.43899
1.42337
1.40762
1.39701
1.38221
0.438453
0.496876
0.521953
0.534905
0.54288
0.547414
0.550227
0.552235
0.55599
0.559479
0.565524
0.571181
0.579496
0.586964
0.596701
0.605389
0.615258
0.62531
0.387572
0.417489
0.424189
0.421528
0.415039
0.404971
0.393798
0.382813
0.371927
0.36243
0.353238
0.346114
0.338975
0.334343
0.329112
0.326711
0.323047
0.322351
0.376181
0.384816
0.388124
0.387415
0.385434
0.381138
0.375682
0.369562
0.363114
0.356562
0.350107
0.343801
0.337819
0.33206
0.326779
0.321674
0.31717
0.312712
0.374178
0.375374
0.376396
0.375929
0.374798
0.372507
0.369615
0.366136
0.362484
0.358469
0.354556
0.350368
0.34652
0.342382
0.338793
0.334816
0.331606
0.327842
0.373737
0.372544
0.371997
0.371082
0.369917
0.368266
0.366339
0.364031
0.36164
0.358966
0.356373
0.353535
0.350915
0.348046
0.34552
0.342699
0.340347
0.337623
0.373769
0.371726
0.370231
0.368831
0.367465
0.36594
0.364344
0.362551
0.360733
0.358749
0.356812
0.35473
0.352769
0.350664
0.348747
0.34667
0.344851
0.342828
0.373818
0.371563
0.369621
0.36786
0.36625
0.364663
0.363121
0.361521
0.359944
0.358297
0.356694
0.355025
0.353428
0.351768
0.350212
0.348586
0.347102
0.345522
0.373833
0.371554
0.369457
0.36751
0.365722
0.364025
0.362428
0.360861
0.359354
0.357851
0.3564
0.354942
0.35354
0.352129
0.350784
0.349424
0.348148
0.346841
0.373832
0.37156
0.369425
0.36741
0.365529
0.363752
0.362086
0.360492
0.35898
0.357515
0.356115
0.354747
0.353436
0.35215
0.350918
0.349705
0.348549
0.347403
0.37383
0.371561
0.369417
0.367384
0.365468
0.363652
0.361942
0.360316
0.358778
0.357309
0.355911
0.354569
0.353288
0.352053
0.350871
0.349728
0.348634
0.347573
0.373828
0.371559
0.369412
0.367375
0.365448
0.363619
0.361889
0.360247
0.35869
0.357209
0.355802
0.354459
0.35318
0.351957
0.350789
0.349669
0.348598
0.34757
0.373827
0.371557
0.369407
0.367369
0.365437
0.363603
0.361865
0.360213
0.358646
0.357156
0.355739
0.35439
0.353107
0.351883
0.350716
0.349601
0.348536
0.34752
0.373827
0.371555
0.369403
0.367362
0.365428
0.363591
0.361848
0.360192
0.358619
0.357123
0.3557
0.354345
0.353056
0.351828
0.350656
0.34954
0.348474
0.347458
0.373826
0.371553
0.369399
0.367357
0.36542
0.363581
0.361835
0.360176
0.358599
0.3571
0.355673
0.354314
0.353021
0.351788
0.350613
0.349493
0.348424
0.347405
0.373826
0.371552
0.369396
0.367352
0.365413
0.363572
0.361824
0.360163
0.358584
0.357081
0.355652
0.35429
0.352994
0.351758
0.35058
0.349457
0.348385
0.347363
0.373825
0.371551
0.369394
0.367349
0.365408
0.363566
0.361816
0.360152
0.358571
0.357067
0.355635
0.354271
0.352972
0.351735
0.350555
0.349429
0.348355
0.347331
0.373825
0.371551
0.369393
0.367347
0.365405
0.363561
0.36181
0.360145
0.358562
0.357056
0.355623
0.354258
0.352957
0.351718
0.350536
0.349409
0.348334
0.347308
0.373825
0.371551
0.369393
0.367347
0.365404
0.36356
0.361808
0.360143
0.358559
0.357052
0.355618
0.354252
0.35295
0.35171
0.350527
0.349399
0.348323
0.347296
0.373825
0.371551
0.369394
0.367348
0.365406
0.363562
0.361811
0.360146
0.358562
0.357056
0.355622
0.354256
0.352955
0.351715
0.350532
0.349405
0.348329
0.347302
0.373826
0.371552
0.369396
0.367351
0.36541
0.363567
0.361816
0.360152
0.35857
0.357065
0.355633
0.354268
0.352969
0.35173
0.35055
0.349423
0.348349
0.347323
0.373826
0.371553
0.369398
0.367355
0.365416
0.363575
0.361828
0.360168
0.358591
0.357091
0.355664
0.354306
0.353012
0.351779
0.350602
0.34948
0.348408
0.347383
0.373826
0.371555
0.369401
0.367363
0.365432
0.363605
0.361875
0.360237
0.358681
0.357203
0.355794
0.354451
0.353167
0.351939
0.350762
0.349635
0.348552
0.347513
0.373827
0.371555
0.369413
0.367418
0.365544
0.363793
0.362138
0.360572
0.359071
0.357632
0.35624
0.354896
0.353589
0.352323
0.35109
0.349894
0.348728
0.347601
0.373819
0.371564
0.369582
0.367846
0.366223
0.364712
0.363219
0.361753
0.360266
0.358787
0.357288
0.3558
0.354306
0.352833
0.351361
0.349924
0.348495
0.34711
0.373767
0.371946
0.370916
0.369978
0.368912
0.367767
0.366326
0.364737
0.362933
0.361062
0.35906
0.357054
0.354971
0.352925
0.350845
0.348825
0.346792
0.344839
0.374093
0.3752
0.37726
0.377562
0.377091
0.375807
0.373488
0.370864
0.367802
0.364686
0.361328
0.358027
0.354602
0.351291
0.347923
0.3447
0.341473
0.338414
0.377677
0.394076
0.402944
0.402354
0.400308
0.396046
0.390665
0.385166
0.379132
0.373302
0.367221
0.361475
0.355719
0.350305
0.345128
0.340198
0.335726
0.331324
0.405777
0.438976
0.451187
0.455808
0.459109
0.462259
0.464969
0.467226
0.46922
0.47084
0.472486
0.473922
0.47554
0.477066
0.479202
0.480825
0.483663
0.485376
0.479011
0.684926
0.865145
0.990809
1.09437
1.17584
1.23938
1.28342
1.31504
1.33208
1.34321
1.34355
1.34143
1.33632
1.32786
1.31776
1.30684
1.2954
0.00233543
0.00388485
0.00559994
0.0072125
0.00862033
0.00982167
0.0108447
0.0117196
0.0124754
0.0131842
0.0138856
0.014589
0.015315
0.0160802
0.0168925
0.0177516
0.0186547
0.0196063
0.0206393
0.0218505
0.0233676
0.025166
0.027185
0.0294126
0.0318646
0.0345649
0.0375392
0.0408071
0.044379
0.0482453
0.0523872
0.0567935
0.0614438
0.0663121
0.071379
0.076624
0.0820323
0.0875897
0.0932858
0.099113
0.105068
0.11115
0.117367
0.123732
0.130265
0.137003
0.143997
0.151322
0.158773
0.166387
0.174147
0.182067
0.190141
0.198378
0.206775
0.215337
0.224063
0.232955
0.242015
0.251242
0.260636
0.270197
0.279924
0.289815
0.299868
0.310082
0.320453
0.330978
0.341651
0.352471
0.363429
0.374523
0.385744
0.397088
0.408546
0.420111
0.431773
0.443527
0.455361
0.467267
0.479234
0.491253
0.503312
0.515401
0.527506
0.539618
0.551723
0.563809
0.575862
0.587869
0.599815
0.611685
0.623463
0.635129
0.646665
0.658051
0.669261
0.680273
0.691062
0.701611
0.71192
0.722035
0.731979
0.741659
0.751112
0.760313
0.769258
0.777933
0.786328
0.794432
0.802233
0.809722
0.816889
0.823724
0.830217
0.836362
0.842149
0.847571
0.852622
0.857294
0.861583
0.865482
0.868986
0.872091
0.874795
0.877095
0.87899
0.880478
0.881559
0.882231
0.882486
0.882369
0.881896
0.880945
0.87954
0.877724
0.875609
0.87316
0.870264
0.86701
0.863387
0.859409
0.855083
0.85042
0.845431
0.840123
0.834506
0.828591
0.82239
0.815916
0.80918
0.802194
0.794974
0.78753
0.779878
0.772032
0.764004
0.755812
0.747468
0.738988
0.73039
0.721691
0.712919
0.704124
0.695526
0.688955
0.68484
0.680982
0.677117
0.673222
0.669298
0.665346
0.661364
0.657338
0.653236
0.648981
0.644418
0.639078
0.632071
0.607062
0.00577528
0.00899398
0.012755
0.0158035
0.0183741
0.0206457
0.0227319
0.0247119
0.0266457
0.0285793
0.0305801
0.0327161
0.0350288
0.037537
0.0402428
0.0431387
0.0462167
0.0494752
0.0529231
0.056576
0.0604474
0.064551
0.0689006
0.0735111
0.0784039
0.0836038
0.0891364
0.0950234
0.101279
0.107903
0.114888
0.122229
0.129923
0.137965
0.146353
0.155063
0.164086
0.173418
0.183054
0.192991
0.203227
0.21376
0.224591
0.235718
0.247144
0.258868
0.270889
0.283203
0.295796
0.308679
0.321854
0.335328
0.349105
0.363189
0.377585
0.392297
0.40733
0.422686
0.43837
0.454385
0.470732
0.487414
0.504432
0.521787
0.539477
0.557504
0.575864
0.594555
0.613574
0.632917
0.652579
0.672553
0.692832
0.71341
0.734276
0.755421
0.776835
0.798505
0.820418
0.842562
0.864921
0.887481
0.910224
0.933133
0.95619
0.979377
1.00267
1.02606
1.04951
1.073
1.09652
1.12003
1.1435
1.16692
1.19025
1.21347
1.23652
1.25938
1.282
1.30432
1.32629
1.34782
1.36893
1.38974
1.41022
1.43035
1.45012
1.46949
1.48844
1.50696
1.52502
1.54259
1.55966
1.57619
1.59218
1.60761
1.62244
1.63667
1.65028
1.66324
1.67556
1.6872
1.69816
1.70842
1.71797
1.7268
1.73491
1.74228
1.74892
1.75481
1.75996
1.76436
1.76802
1.77093
1.77295
1.7741
1.77463
1.77458
1.77368
1.77203
1.76965
1.76654
1.76273
1.75821
1.75301
1.74714
1.74062
1.73345
1.72567
1.71728
1.70832
1.69879
1.68872
1.67814
1.66706
1.65552
1.64353
1.63113
1.61834
1.60518
1.59169
1.57789
1.56383
1.54954
1.53512
1.52096
1.50714
1.49326
1.47929
1.46524
1.45115
1.43703
1.42289
1.40874
1.39456
1.38032
1.36584
1.35102
1.33438
1.29898
0.00965243
0.0146901
0.0197935
0.0237708
0.0271384
0.0301806
0.0330613
0.0358922
0.0387596
0.0417355
0.0448813
0.0482451
0.0518583
0.0557356
0.0598783
0.0642801
0.0689325
0.0738297
0.0789712
0.0843633
0.0900193
0.0959513
0.102172
0.108699
0.115551
0.12275
0.130315
0.138265
0.146612
0.155373
0.164564
0.174191
0.18426
0.194769
0.205714
0.217082
0.228867
0.241063
0.253665
0.266666
0.280061
0.293844
0.30801
0.322555
0.337474
0.352764
0.368422
0.384444
0.400829
0.417582
0.434707
0.452207
0.470087
0.48835
0.507001
0.526044
0.545482
0.565317
0.585554
0.606194
0.627239
0.648689
0.670545
0.692807
0.715473
0.738541
0.762007
0.785868
0.810119
0.834754
0.859766
0.885147
0.910887
0.936977
0.963405
0.990158
1.01722
1.04459
1.07223
1.10014
1.1283
1.15669
1.18528
1.21406
1.24301
1.27209
1.30129
1.33058
1.35994
1.38933
1.41873
1.44811
1.47744
1.50668
1.5358
1.56477
1.59355
1.62211
1.65041
1.67842
1.7061
1.73345
1.76043
1.78703
1.81323
1.83898
1.86426
1.88903
1.91327
1.93695
1.96003
1.98249
2.00429
2.02542
2.04584
2.06552
2.08445
2.1026
2.11995
2.13647
2.15214
2.16696
2.18089
2.19392
2.20604
2.21724
2.2275
2.23682
2.24518
2.25259
2.25903
2.26452
2.26903
2.27256
2.27506
2.27643
2.27696
2.27665
2.27532
2.27303
2.2698
2.26564
2.26057
2.25461
2.24777
2.24007
2.23154
2.22219
2.21204
2.20113
2.18948
2.17711
2.16406
2.15034
2.136
2.12106
2.10556
2.08952
2.07299
2.056
2.03858
2.02078
2.00263
1.98419
1.96556
1.94695
1.92843
1.90984
1.89115
1.87238
1.85356
1.83473
1.81592
1.79715
1.77844
1.75982
1.74122
1.72266
1.70273
1.6715
0.0129989
0.0206554
0.0270499
0.0318819
0.0359584
0.0396626
0.043205
0.046724
0.0503223
0.0540804
0.058061
0.062309
0.0668514
0.0716991
0.0768506
0.0822972
0.0880285
0.0940369
0.10032
0.106882
0.113731
0.120882
0.128353
0.136168
0.144354
0.152938
0.161947
0.171405
0.181332
0.191745
0.202654
0.214062
0.22597
0.23837
0.251253
0.264618
0.278459
0.292769
0.307539
0.322762
0.33843
0.354537
0.371077
0.388045
0.405437
0.42325
0.441482
0.460132
0.479202
0.498695
0.518616
0.538969
0.559758
0.580989
0.602664
0.62479
0.647369
0.670406
0.693902
0.717862
0.742287
0.767179
0.792537
0.818362
0.844652
0.871405
0.898618
0.926288
0.954408
0.982972
1.01197
1.0414
1.07125
1.10151
1.13215
1.16318
1.19458
1.22632
1.2584
1.29078
1.32346
1.3564
1.3896
1.42301
1.45662
1.4904
1.52431
1.55834
1.59245
1.6266
1.66077
1.69492
1.72902
1.76303
1.79691
1.83063
1.86415
1.89743
1.93045
1.96316
1.99553
2.02753
2.05912
2.09026
2.12092
2.15106
2.18064
2.20962
2.23797
2.26564
2.29261
2.31884
2.34429
2.36894
2.39274
2.41567
2.43771
2.45882
2.47897
2.49815
2.51632
2.53347
2.54957
2.56461
2.57857
2.59143
2.60319
2.61383
2.62334
2.63172
2.63896
2.64506
2.65002
2.65382
2.65641
2.65771
2.65804
2.65728
2.65536
2.65233
2.64819
2.64296
2.63667
2.62933
2.62097
2.6116
2.60126
2.58997
2.57775
2.56464
2.55067
2.53587
2.52027
2.5039
2.48681
2.46903
2.45059
2.43154
2.41191
2.39175
2.3711
2.35001
2.32852
2.3067
2.28464
2.26249
2.24029
2.21801
2.19562
2.17315
2.15065
2.12817
2.10574
2.08343
2.06128
2.03939
2.01778
1.99654
1.97447
1.94539
0.0156422
0.0265496
0.0342972
0.0400214
0.0448198
0.0491661
0.0533171
0.057437
0.0616436
0.0660253
0.0706478
0.0755562
0.0807764
0.0863185
0.0921807
0.0983549
0.104832
0.111607
0.118679
0.126058
0.133756
0.141794
0.150199
0.158998
0.168222
0.177898
0.188054
0.198709
0.209882
0.221583
0.233819
0.246591
0.259897
0.273733
0.288095
0.302977
0.318372
0.334274
0.350674
0.367566
0.384944
0.402802
0.421134
0.439939
0.459213
0.478955
0.499165
0.519846
0.541
0.562631
0.584745
0.607346
0.63044
0.654032
0.678128
0.702732
0.72785
0.753486
0.779644
0.806328
0.83354
0.861284
0.889559
0.918367
0.947707
0.977578
1.00798
1.0389
1.07034
1.1023
1.13476
1.16772
1.20117
1.23508
1.26946
1.30429
1.33954
1.37521
1.41126
1.44769
1.48446
1.52155
1.55894
1.5966
1.63449
1.67259
1.71086
1.74928
1.7878
1.82638
1.86501
1.90362
1.94219
1.98067
2.01903
2.05721
2.09519
2.13292
2.17035
2.20746
2.24418
2.28048
2.31631
2.35164
2.3864
2.42057
2.4541
2.48694
2.51904
2.55038
2.5809
2.61057
2.63935
2.66719
2.69407
2.71994
2.74478
2.76856
2.79123
2.81278
2.83317
2.85239
2.87041
2.8872
2.90276
2.91706
2.93009
2.94183
2.95229
2.96145
2.96931
2.97587
2.98112
2.98505
2.98761
2.98873
2.98875
2.98748
2.98491
2.98108
2.97599
2.96968
2.96216
2.95346
2.9436
2.93262
2.92053
2.90737
2.89318
2.87799
2.86182
2.84472
2.82673
2.80789
2.78823
2.76779
2.74663
2.72479
2.7023
2.67922
2.6556
2.63148
2.60693
2.58201
2.5568
2.53142
2.50592
2.4803
2.45458
2.42878
2.40297
2.37719
2.35153
2.32605
2.30085
2.27606
2.25178
2.22814
2.20411
2.17539
0.01768
0.0321079
0.0412732
0.0479165
0.0534394
0.0584068
0.0631192
0.0677649
0.0724757
0.0773485
0.0824542
0.0878411
0.0935383
0.0995595
0.105907
0.112579
0.119571
0.126884
0.134524
0.142505
0.150846
0.15957
0.168707
0.178284
0.18833
0.19887
0.209926
0.221516
0.233651
0.246342
0.259591
0.2734
0.287767
0.30269
0.318166
0.334189
0.350754
0.367856
0.38549
0.403651
0.422336
0.441541
0.461264
0.481505
0.502263
0.52354
0.545337
0.567659
0.590509
0.613892
0.637814
0.662282
0.687302
0.712881
0.739025
0.76574
0.793034
0.820911
0.849378
0.87844
0.908099
0.938361
0.969227
1.0007
1.03278
1.06546
1.09876
1.13265
1.16714
1.20222
1.23789
1.27413
1.31094
1.3483
1.3862
1.42461
1.46353
1.50294
1.5428
1.5831
1.62381
1.66491
1.70636
1.74813
1.79019
1.8325
1.87503
1.91774
1.96059
2.00353
2.04653
2.08954
2.13251
2.1754
2.21817
2.26076
2.30313
2.34522
2.387
2.4284
2.46938
2.50989
2.54986
2.58926
2.62803
2.66613
2.7035
2.74008
2.77585
2.81073
2.8447
2.8777
2.90968
2.94061
2.97045
2.99915
3.02668
3.05299
3.07807
3.10187
3.12437
3.14554
3.16535
3.18378
3.20082
3.21644
3.23063
3.24337
3.25467
3.2645
3.27288
3.27979
3.28523
3.28921
3.29163
3.29255
3.29215
3.29031
3.28703
3.28234
3.27626
3.26882
3.26005
3.24996
3.2386
3.22598
3.21216
3.19715
3.181
3.16374
3.14542
3.12607
3.10574
3.08448
3.06232
3.03932
3.01552
2.99098
2.96573
2.93984
2.91336
2.88635
2.85885
2.83095
2.80272
2.77426
2.74563
2.71685
2.68796
2.65901
2.63005
2.60117
2.57244
2.54396
2.51587
2.48833
2.46148
2.43548
2.4094
2.37988
0.0192197
0.0372175
0.047748
0.0552872
0.0615093
0.0670609
0.0722819
0.0773825
0.0825078
0.0877638
0.0932284
0.098956
0.104983
0.111329
0.118005
0.125017
0.132369
0.140069
0.148128
0.156563
0.165396
0.174651
0.184355
0.194535
0.205213
0.216413
0.228151
0.240442
0.253296
0.26672
0.280718
0.295292
0.310442
0.326167
0.342465
0.359334
0.376772
0.394776
0.413344
0.432475
0.452167
0.472421
0.493238
0.514618
0.536565
0.559082
0.582172
0.605843
0.630099
0.654946
0.680394
0.706448
0.733118
0.760412
0.788338
0.816904
0.846118
0.875988
0.906521
0.937724
0.969602
1.00216
1.03541
1.06934
1.10397
1.13928
1.17529
1.21199
1.24937
1.28743
1.32617
1.36557
1.40562
1.44631
1.48763
1.52955
1.57206
1.61514
1.65875
1.70287
1.74748
1.79255
1.83803
1.88389
1.9301
1.97662
2.0234
2.0704
2.11757
2.16488
2.21226
2.25967
2.30705
2.35436
2.40155
2.44854
2.4953
2.54176
2.58787
2.63356
2.67878
2.72347
2.76757
2.81102
2.85377
2.89576
2.93694
2.97724
3.01662
3.05501
3.09237
3.12865
3.16379
3.19775
3.23048
3.26194
3.29209
3.32089
3.34829
3.37427
3.3988
3.42183
3.44336
3.46335
3.48178
3.49863
3.51389
3.52755
3.53959
3.55002
3.55882
3.56601
3.57156
3.57551
3.57773
3.57837
3.57748
3.575
3.57094
3.56535
3.55823
3.54962
3.53954
3.52804
3.51513
3.50087
3.48528
3.46841
3.4503
3.43099
3.41052
3.38894
3.3663
3.34265
3.31803
3.29251
3.26612
3.23893
3.21099
3.18235
3.15308
3.12323
3.09287
3.06207
3.0309
2.99945
2.96779
2.93596
2.90402
2.87201
2.84002
2.80812
2.77643
2.74505
2.71415
2.68391
2.65451
2.62609
2.59781
2.56668
0.0205179
0.041767
0.053545
0.0619105
0.0687726
0.0748509
0.0805196
0.0860077
0.0914724
0.0970285
0.102761
0.108733
0.114988
0.121556
0.128456
0.135703
0.143308
0.151285
0.15965
0.168421
0.177621
0.187271
0.197396
0.208018
0.219158
0.230834
0.243061
0.25585
0.269211
0.283152
0.297676
0.312787
0.328488
0.34478
0.361665
0.379142
0.397213
0.415878
0.43514
0.454999
0.475459
0.496521
0.51819
0.540471
0.563368
0.586887
0.611036
0.635822
0.661253
0.687338
0.714086
0.741507
0.769612
0.798411
0.827915
0.858133
0.889076
0.920754
0.953176
0.986351
1.02029
1.05499
1.09047
1.12673
1.16377
1.2016
1.24022
1.27962
1.3198
1.36077
1.4025
1.44499
1.48824
1.53222
1.57691
1.62231
1.66839
1.71511
1.76246
1.81041
1.85892
1.90796
1.95748
2.00746
2.05784
2.10858
2.15963
2.21095
2.26248
2.31416
2.36595
2.41779
2.46961
2.52136
2.57297
2.62438
2.67554
2.72637
2.7768
2.82678
2.87623
2.92509
2.9733
3.02079
3.06749
3.11334
3.15829
3.20227
3.24521
3.28707
3.32777
3.36727
3.40551
3.44243
3.47799
3.51214
3.54483
3.57603
3.60568
3.63376
3.66022
3.68504
3.70819
3.72964
3.74938
3.76737
3.78361
3.79809
3.81079
3.82172
3.83086
3.83823
3.84382
3.84764
3.8496
3.84987
3.84842
3.84523
3.84035
3.83378
3.82557
3.81573
3.80432
3.79136
3.77689
3.76095
3.74359
3.72484
3.70476
3.68339
3.66079
3.637
3.61207
3.58605
3.55901
3.531
3.50207
3.47229
3.44171
3.41038
3.37839
3.34578
3.31262
3.27898
3.24495
3.2106
3.176
3.14122
3.10631
3.07134
3.0364
3.00159
2.967
2.9328
2.89914
2.86623
2.83426
2.80336
2.77273
2.7398
0.0231351
0.0459218
0.0586469
0.0676784
0.0750694
0.0815892
0.0876329
0.0934424
0.0991829
0.104976
0.110913
0.117065
0.123482
0.130203
0.137257
0.144664
0.152444
0.160614
0.169192
0.178198
0.187652
0.197575
0.207987
0.218908
0.230355
0.242345
0.25489
0.268002
0.28169
0.295961
0.310823
0.326281
0.34234
0.359005
0.376279
0.394167
0.412674
0.431803
0.451559
0.471948
0.492975
0.514647
0.536971
0.559954
0.583605
0.607933
0.632947
0.658659
0.685078
0.712216
0.740085
0.768698
0.798069
0.828209
0.859133
0.890852
0.92338
0.95673
0.990912
1.02594
1.06182
1.09856
1.13618
1.17468
1.21406
1.25433
1.29549
1.33754
1.38048
1.42431
1.46901
1.51457
1.56099
1.60825
1.65632
1.7052
1.75484
1.80523
1.85634
1.90812
1.96055
2.01358
2.06717
2.12128
2.17585
2.23084
2.28619
2.34184
2.39774
2.45382
2.51003
2.56629
2.62255
2.67873
2.73476
2.79058
2.8461
2.90127
2.956
3.01022
3.06386
3.11684
3.1691
3.22055
3.27114
3.32079
3.36944
3.417
3.46343
3.50865
3.5526
3.59522
3.63645
3.67623
3.71451
3.75123
3.78636
3.81983
3.85161
3.88167
3.90995
3.93643
3.96109
3.98388
4.0048
4.02382
4.04092
4.05611
4.06935
4.08067
4.09005
4.09749
4.10302
4.10662
4.10825
4.10805
4.10597
4.10201
4.09622
4.08863
4.07926
4.06816
4.05537
4.04092
4.02486
4.00723
3.98808
3.96746
3.94542
3.92201
3.89729
3.87131
3.84413
3.8158
3.78638
3.75594
3.72454
3.69223
3.65907
3.62514
3.5905
3.55521
3.51934
3.48297
3.44616
3.409
3.37157
3.33394
3.29617
3.25835
3.22055
3.1829
3.14552
3.10856
3.07219
3.03664
3.00209
2.96866
2.93561
2.9008
0.0260726
0.0494781
0.0629203
0.0724743
0.0802857
0.0871603
0.0935071
0.0995761
0.105538
0.111518
0.117614
0.1239
0.130435
0.137263
0.144419
0.151932
0.159823
0.168115
0.176827
0.185977
0.195586
0.205671
0.21625
0.227342
0.238961
0.251123
0.26384
0.277124
0.290985
0.305433
0.320475
0.336121
0.352378
0.369253
0.386755
0.404891
0.423669
0.443097
0.463184
0.483938
0.505369
0.527488
0.550304
0.57383
0.598077
0.623056
0.648782
0.675268
0.702528
0.730577
0.75943
0.789103
0.819612
0.850974
0.883205
0.91632
0.950335
0.985264
1.02112
1.05793
1.09569
1.13441
1.17412
1.21481
1.2565
1.29918
1.34287
1.38756
1.43325
1.47993
1.5276
1.57625
1.62586
1.67641
1.72788
1.78026
1.8335
1.88758
1.94246
1.9981
2.05447
2.11152
2.16919
2.22745
2.28622
2.34545
2.40509
2.46507
2.52531
2.58577
2.64636
2.70701
2.76765
2.8282
2.88858
2.94872
3.00853
3.06794
3.12687
3.18523
3.24294
3.29992
3.3561
3.41139
3.46573
3.51903
3.57121
3.62222
3.67196
3.72039
3.76742
3.81299
3.85703
3.8995
3.94032
3.97944
4.01682
4.0524
4.08613
4.11798
4.14792
4.17589
4.20188
4.22586
4.2478
4.26768
4.2855
4.30124
4.31489
4.32646
4.33594
4.34335
4.34869
4.35196
4.35318
4.35241
4.34961
4.3448
4.33804
4.32936
4.3188
4.30639
4.29219
4.27623
4.25856
4.23924
4.21831
4.19583
4.17185
4.14644
4.11964
4.09153
4.06215
4.03157
3.99986
3.96707
3.93327
3.89853
3.86291
3.82648
3.7893
3.75144
3.71298
3.67398
3.63452
3.59469
3.55455
3.5142
3.4737
3.43314
3.39262
3.35226
3.31218
3.27255
3.23355
3.1954
3.15828
3.12232
3.0868
3.04989
0.0287862
0.0523142
0.066287
0.0762397
0.0843738
0.0915226
0.0981047
0.104376
0.11051
0.116636
0.122852
0.129238
0.135856
0.142755
0.149975
0.157547
0.165497
0.173849
0.182622
0.191836
0.201511
0.211662
0.222308
0.233463
0.245142
0.25736
0.270129
0.283461
0.297368
0.311862
0.326954
0.342655
0.358977
0.37593
0.393526
0.411776
0.430693
0.450287
0.470573
0.491563
0.51327
0.535708
0.558892
0.582837
0.607558
0.633074
0.6594
0.686554
0.714554
0.743417
0.773163
0.803813
0.835385
0.8679
0.901377
0.935834
0.971291
1.00776
1.04527
1.08383
1.12346
1.16416
1.20596
1.24885
1.29286
1.33798
1.38422
1.43159
1.48006
1.52965
1.58033
1.6321
1.68494
1.73883
1.79375
1.84965
1.90652
1.96432
2.023
2.08253
2.14285
2.20391
2.26565
2.32803
2.39097
2.45441
2.51828
2.58252
2.64704
2.71177
2.77664
2.84156
2.90646
2.97124
3.03582
3.10012
3.16405
3.22753
3.29045
3.35274
3.41432
3.47508
3.53495
3.59385
3.65169
3.70839
3.76387
3.81805
3.87087
3.92223
3.97208
4.02034
4.06694
4.11182
4.15492
4.19619
4.23556
4.27299
4.30843
4.34184
4.37318
4.40242
4.42952
4.45446
4.47721
4.49776
4.51609
4.5322
4.54608
4.55774
4.56717
4.57438
4.5794
4.58224
4.58291
4.58149
4.57787
4.57213
4.56433
4.5545
4.54269
4.52895
4.51331
4.49584
4.47657
4.45557
4.43289
4.40859
4.38273
4.35537
4.32657
4.29639
4.26491
4.23219
4.19828
4.16326
4.1272
4.09016
4.05221
4.01341
3.97385
3.93357
3.89267
3.8512
3.80926
3.76691
3.72424
3.68133
3.63827
3.59513
3.55204
3.5091
3.46647
3.42429
3.38276
3.3421
3.30248
3.26402
3.22604
3.18699
0.0312035
0.0544326
0.068758
0.078992
0.0873556
0.094701
0.101453
0.107871
0.114131
0.120362
0.126664
0.133119
0.13979
0.146728
0.153975
0.161566
0.169529
0.177889
0.186667
0.195882
0.205551
0.21569
0.226315
0.237442
0.249085
0.261257
0.273973
0.287248
0.301095
0.315529
0.330565
0.346216
0.362498
0.379426
0.397015
0.41528
0.434238
0.453905
0.474299
0.495436
0.517335
0.540013
0.563488
0.587779
0.612906
0.638893
0.665761
0.693531
0.722224
0.751865
0.782476
0.814082
0.846706
0.880373
0.915103
0.95092
0.987844
1.0259
1.0651
1.10546
1.14701
1.18976
1.23371
1.27889
1.3253
1.37295
1.42183
1.47195
1.5233
1.57587
1.62965
1.68462
1.74077
1.79806
1.85646
1.91595
1.97649
2.03802
2.10051
2.16391
2.22815
2.29319
2.35895
2.42538
2.49239
2.55993
2.62791
2.69626
2.76489
2.83372
2.90267
2.97164
3.04056
3.10932
3.17783
3.24601
3.31376
3.38099
3.4476
3.51349
3.57859
3.64279
3.706
3.76814
3.82911
3.88885
3.94725
4.00424
4.05974
4.11367
4.16596
4.21653
4.26532
4.31225
4.35727
4.40032
4.44134
4.48029
4.5171
4.55175
4.58419
4.61438
4.6423
4.66791
4.69121
4.71217
4.73078
4.74703
4.76093
4.77247
4.78166
4.78852
4.79306
4.79531
4.79531
4.79313
4.78858
4.78183
4.77293
4.76192
4.74883
4.73373
4.71666
4.69768
4.67684
4.6542
4.62982
4.60376
4.5761
4.54688
4.51619
4.48407
4.45062
4.41588
4.37993
4.34284
4.30468
4.26551
4.22541
4.18444
4.14268
4.10019
4.05704
4.01331
3.96908
3.92443
3.87943
3.83418
3.78876
3.74326
3.69778
3.65247
3.60745
3.56289
3.51898
3.47592
3.4339
3.39303
3.35268
3.31154
0.0333057
0.0558801
0.0703936
0.0807988
0.0893025
0.0967683
0.103626
0.110135
0.116473
0.122768
0.129122
0.135613
0.142308
0.149258
0.156505
0.164084
0.172024
0.180348
0.189078
0.198233
0.20783
0.217886
0.228418
0.239441
0.250971
0.26302
0.275604
0.28874
0.302447
0.316744
0.331647
0.347176
0.363349
0.380186
0.397706
0.41593
0.434879
0.454574
0.475036
0.49629
0.518355
0.541256
0.565012
0.589643
0.615175
0.641637
0.669057
0.697462
0.726882
0.757345
0.788878
0.821509
0.855267
0.890178
0.926266
0.963556
1.00207
1.04184
1.08287
1.12519
1.16881
1.21376
1.26004
1.30766
1.35664
1.40697
1.45865
1.51168
1.56605
1.62174
1.67874
1.73703
1.79657
1.85734
1.9193
1.98241
2.04662
2.11189
2.17816
2.24537
2.31345
2.38236
2.452
2.52231
2.59322
2.66463
2.73648
2.80867
2.88111
2.95372
3.02641
3.09907
3.17162
3.24396
3.31598
3.38761
3.45872
3.52923
3.59904
3.66806
3.73617
3.8033
3.86934
3.9342
3.9978
4.06004
4.12084
4.18012
4.23779
4.29377
4.34799
4.40038
4.45086
4.49936
4.54583
4.5902
4.63242
4.67244
4.7102
4.74567
4.77881
4.80958
4.83796
4.86392
4.88743
4.90849
4.92709
4.94321
4.95687
4.96806
4.9768
4.98311
4.987
4.98852
4.98775
4.98465
4.97909
4.97126
4.9612
4.94896
4.93458
4.91812
4.89964
4.87919
4.85682
4.83262
4.80663
4.77892
4.74957
4.71863
4.68619
4.6523
4.61703
4.58047
4.54267
4.50371
4.46367
4.4226
4.38057
4.33767
4.29395
4.24949
4.20436
4.15863
4.11237
4.06567
4.01861
3.97128
3.92375
3.87613
3.82852
3.78106
3.73388
3.68714
3.64104
3.59578
3.55151
3.50838
3.46579
3.42268
0.0351
0.0567273
0.0712784
0.0817522
0.0903112
0.0978237
0.104722
0.111266
0.117634
0.123954
0.130327
0.136829
0.143523
0.150459
0.157676
0.165208
0.173085
0.181329
0.189964
0.199009
0.208482
0.218401
0.228785
0.239651
0.251021
0.26292
0.275356
0.288344
0.301904
0.316057
0.330823
0.346226
0.362288
0.379033
0.396486
0.414672
0.433616
0.453343
0.473884
0.495267
0.517521
0.54067
0.564742
0.589767
0.615782
0.64282
0.670911
0.700088
0.730385
0.761836
0.794475
0.828333
0.863442
0.899828
0.937519
0.97654
1.01691
1.05866
1.1018
1.14636
1.19235
1.23978
1.28867
1.33902
1.39083
1.4441
1.49882
1.55498
1.61258
1.67157
1.73195
1.79368
1.85672
1.92103
1.98658
2.0533
2.12115
2.19007
2.26
2.33087
2.40261
2.47514
2.54839
2.62228
2.69673
2.77164
2.84694
2.92252
2.9983
3.07418
3.15006
3.22585
3.30145
3.37675
3.45167
3.52608
3.59991
3.67303
3.74536
3.8168
3.88724
3.9566
4.02476
4.09165
4.15716
4.22122
4.28373
4.34461
4.40377
4.46115
4.51665
4.57021
4.62175
4.67121
4.71853
4.76364
4.8065
4.84705
4.88525
4.92105
4.95441
4.98531
5.01371
5.0396
5.06296
5.08376
5.10201
5.1177
5.13083
5.14142
5.14947
5.15502
5.15808
5.1587
5.15707
5.15289
5.14624
5.13727
5.12602
5.11254
5.09688
5.0791
5.05925
5.0374
5.01361
4.98795
4.96048
4.93127
4.90039
4.86791
4.83391
4.79845
4.76161
4.72346
4.68406
4.6435
4.60183
4.55914
4.51548
4.47094
4.42557
4.37945
4.33264
4.28521
4.23725
4.18882
4.14001
4.09091
4.04159
3.99215
3.94271
3.89338
3.84432
3.79567
3.74762
3.70037
3.65407
3.60888
3.56425
3.51939
0.0365891
0.057017
0.0714732
0.08193
0.0904722
0.0979665
0.104848
0.111379
0.117734
0.124041
0.130395
0.136873
0.143537
0.150437
0.157609
0.165085
0.172892
0.181055
0.189594
0.19853
0.207882
0.217669
0.22791
0.238624
0.249827
0.261532
0.27376
0.286542
0.299904
0.313872
0.328475
0.343741
0.359699
0.376381
0.393819
0.412043
0.431085
0.450979
0.471756
0.493453
0.51611
0.539752
0.564406
0.590093
0.616854
0.644741
0.673797
0.704062
0.735574
0.768372
0.802497
0.837992
0.87488
0.913186
0.952939
0.994159
1.03687
1.08108
1.12681
1.17408
1.2229
1.27327
1.32519
1.37867
1.4337
1.49026
1.54835
1.60793
1.66898
1.73148
1.79537
1.86063
1.92721
1.99506
2.06412
2.13434
2.20565
2.27799
2.35129
2.42547
2.50045
2.57617
2.65253
2.72945
2.80685
2.88462
2.96269
3.04095
3.11931
3.19768
3.27596
3.35404
3.43183
3.50922
3.58613
3.66243
3.73805
3.81287
3.88679
3.95972
4.03156
4.10221
4.17158
4.23958
4.3061
4.37108
4.43442
4.49603
4.55585
4.61378
4.66975
4.72369
4.77553
4.8252
4.87265
4.91782
4.96065
5.0011
5.03911
5.07466
5.1077
5.13821
5.16615
5.19151
5.21428
5.23443
5.25196
5.26688
5.27919
5.2889
5.29603
5.3006
5.30265
5.30229
5.29963
5.29425
5.28646
5.27632
5.26387
5.24917
5.23227
5.21323
5.19212
5.16899
5.14391
5.11696
5.08819
5.05768
5.0255
4.99172
4.95642
4.91967
4.88153
4.84209
4.8014
4.75956
4.71661
4.67264
4.6277
4.58188
4.53522
4.48781
4.43969
4.39096
4.34166
4.29189
4.24171
4.1912
4.14046
4.08958
4.03865
3.98781
3.93719
3.88695
3.83726
3.78831
3.74025
3.69325
3.64682
3.60047
0.037904
0.0569701
0.0712702
0.0816478
0.0901163
0.0975416
0.10436
0.110833
0.117134
0.123391
0.129697
0.136124
0.14273
0.149557
0.156643
0.164018
0.171707
0.179731
0.188115
0.196881
0.206051
0.215647
0.22569
0.236204
0.247214
0.258747
0.270833
0.2835
0.296777
0.310696
0.325289
0.340592
0.356643
0.37348
0.391152
0.409696
0.429145
0.449537
0.470908
0.493289
0.516687
0.541162
0.566782
0.593615
0.62171
0.651103
0.681834
0.713942
0.747466
0.782441
0.818898
0.856858
0.896357
0.937427
0.980103
1.02439
1.07029
1.11781
1.16696
1.21774
1.27014
1.32417
1.37981
1.43704
1.49583
1.55618
1.61803
1.68136
1.74613
1.81229
1.87979
1.94859
2.01862
2.08983
2.16215
2.23552
2.30987
2.38513
2.46122
2.53807
2.61559
2.69371
2.77234
2.8514
2.93079
3.01043
3.09023
3.1701
3.24993
3.32965
3.40914
3.48833
3.5671
3.64537
3.72303
3.79999
3.87616
3.95143
4.02571
4.0989
4.17092
4.24167
4.31106
4.37899
4.44538
4.51015
4.57321
4.63448
4.69388
4.75134
4.80679
4.86015
4.91134
4.96033
5.00704
5.05143
5.09343
5.13302
5.17013
5.20474
5.2368
5.2663
5.29321
5.31751
5.33918
5.35822
5.37462
5.38839
5.39952
5.40805
5.41397
5.41732
5.41815
5.41674
5.41277
5.40616
5.39716
5.38581
5.37217
5.35627
5.3382
5.31799
5.29573
5.27146
5.24526
5.2172
5.18735
5.15577
5.12255
5.08774
5.05143
5.01369
4.97459
4.93419
4.89258
4.84981
4.80596
4.76109
4.71527
4.66856
4.62102
4.57272
4.52372
4.47409
4.42388
4.37317
4.32204
4.27055
4.21878
4.16684
4.11482
4.06284
4.01103
3.95954
3.90854
3.85821
3.80869
3.76018
3.71223
3.66469
0.0390906
0.0567309
0.0707152
0.0809039
0.0892058
0.0964777
0.103157
0.109504
0.115693
0.121847
0.128055
0.134386
0.140891
0.147612
0.154584
0.161838
0.169404
0.17731
0.185579
0.194234
0.2033
0.212803
0.222771
0.233236
0.244227
0.255777
0.267923
0.280703
0.294166
0.308351
0.323293
0.339037
0.355624
0.373095