/*--------------------------------*- C++ -*----------------------------------*\
| =========                 |                                                 |
| \\      /  F ield         | OpenFOAM: The Open Source CFD Toolbox           |
|  \\    /   O peration     | Version:  v2006                                 |
|   \\  /    A nd           | Website:  www.openfoam.com                      |
|    \\/     M anipulation  |                                                 |
\*---------------------------------------------------------------------------*/
FoamFile
{
    version     2.0;
    format      ascii;
    class       volScalarField;
    location    "280";
    object      nut;
}
// * * * * * * * * * * * * * * * * * * * * * * * * * * * * * * * * * * * * * //

dimensions      [0 2 -1 0 0 0 0];


internalField   nonuniform List<scalar> 
12225
(
2.70743e-05
3.55747e-05
4.05232e-05
4.31924e-05
4.44515e-05
4.49643e-05
4.49108e-05
4.48716e-05
4.4503e-05
4.41848e-05
4.38513e-05
4.35233e-05
4.32271e-05
4.29454e-05
4.27118e-05
4.24744e-05
4.23154e-05
4.20875e-05
0.000212994
8.46395e-05
5.59092e-05
4.40562e-05
3.83768e-05
3.53545e-05
3.38476e-05
3.30807e-05
3.28531e-05
3.28757e-05
3.32144e-05
3.3605e-05
3.42287e-05
3.48004e-05
3.55846e-05
3.62293e-05
3.71307e-05
3.7657e-05
0.000656996
0.000306528
0.000194016
0.000142102
0.000113226
9.44968e-05
8.20242e-05
7.33149e-05
6.67997e-05
6.19623e-05
5.80398e-05
5.51134e-05
5.25296e-05
5.07163e-05
4.88875e-05
4.78617e-05
4.63271e-05
4.53893e-05
0.000863006
0.000609451
0.00045163
0.000350839
0.000289305
0.000246494
0.000216684
0.000194293
0.000177764
0.000164288
0.000154047
0.000145062
0.000138199
0.000131721
0.000126892
0.000121871
0.000118148
0.000113784
0.000877431
0.000776411
0.000690871
0.000591923
0.00051733
0.000458089
0.000413482
0.000377226
0.000349674
0.000325961
0.000307902
0.000291297
0.000278923
0.000266586
0.000257898
0.000248164
0.000242283
0.000233312
0.000858411
0.000835294
0.00080729
0.000753093
0.000699394
0.000648245
0.000604837
0.000565862
0.000534208
0.000505357
0.000482496
0.000460718
0.000444085
0.000427076
0.000414978
0.000401072
0.000392724
0.000379945
0.000854258
0.000849543
0.000840713
0.000823039
0.000798602
0.000768464
0.000739182
0.00070955
0.000683359
0.000657721
0.000636208
0.000614794
0.000597706
0.00057978
0.000566556
0.000551119
0.000541629
0.000526689
0.00085239
0.000851591
0.000849792
0.000844527
0.000835946
0.000824519
0.000810178
0.000793463
0.000777243
0.000760012
0.00074456
0.000728287
0.000714568
0.000699757
0.000688194
0.000674677
0.000665731
0.000651997
0.000851903
0.00085148
0.000851079
0.000849881
0.000847545
0.000843616
0.000838592
0.000831271
0.000823646
0.00081499
0.000806297
0.000796549
0.000787795
0.000778063
0.000769856
0.000760445
0.00075333
0.000743473
0.000851815
0.000851373
0.000851073
0.000850609
0.000850034
0.000848808
0.000847331
0.000844857
0.000841997
0.000838303
0.000834501
0.000829861
0.000825422
0.000820269
0.000815574
0.00081025
0.000805602
0.00079975
0.000851799
0.000851357
0.000851021
0.000850623
0.000850325
0.000849824
0.000849338
0.000848517
0.000847604
0.00084626
0.000844872
0.000843007
0.0008412
0.000838881
0.000836818
0.000834099
0.000832042
0.000828843
0.000851792
0.000851359
0.000851001
0.000850611
0.000850306
0.000849938
0.000849631
0.00084921
0.000848815
0.000848233
0.000847676
0.000846875
0.000846137
0.000845092
0.000844212
0.000842914
0.000841974
0.000840423
0.000851787
0.000851362
0.000850989
0.000850607
0.00085028
0.000849936
0.000849644
0.000849319
0.00084904
0.000848697
0.000848398
0.000848001
0.000847658
0.000847179
0.000846786
0.00084621
0.000845771
0.0008451
0.000851783
0.000851364
0.00085098
0.000850604
0.000850263
0.000849925
0.000849622
0.000849315
0.000849043
0.000848758
0.000848506
0.000848232
0.00084799
0.000847714
0.000847472
0.000847185
0.000846936
0.000846635
0.000851781
0.000851364
0.000850974
0.0008506
0.000850251
0.000849916
0.000849602
0.0008493
0.000849018
0.000848744
0.000848488
0.000848238
0.000848004
0.000847773
0.000847556
0.00084734
0.000847136
0.000846932
0.00085178
0.000851363
0.00085097
0.000850596
0.000850242
0.000849906
0.000849588
0.000849285
0.000848998
0.000848724
0.000848463
0.000848213
0.000847976
0.000847748
0.000847531
0.000847322
0.000847123
0.000846931
0.000851779
0.000851362
0.000850967
0.000850592
0.000850236
0.000849899
0.000849578
0.000849273
0.000848984
0.000848707
0.000848444
0.000848192
0.000847952
0.000847722
0.000847502
0.000847292
0.00084709
0.000846898
0.000851779
0.000851362
0.000850965
0.000850589
0.000850233
0.000849894
0.000849572
0.000849265
0.000848974
0.000848695
0.00084843
0.000848177
0.000847934
0.000847703
0.000847481
0.000847269
0.000847066
0.000846871
0.000851779
0.000851362
0.000850965
0.000850589
0.000850232
0.000849892
0.00084957
0.000849262
0.00084897
0.000848691
0.000848424
0.00084817
0.000847927
0.000847694
0.000847471
0.000847258
0.000847054
0.000846858
0.000851779
0.000851362
0.000850966
0.000850591
0.000850234
0.000849895
0.000849573
0.000849266
0.000848973
0.000848695
0.000848428
0.000848174
0.00084793
0.000847697
0.000847473
0.000847259
0.000847052
0.000846855
0.000851779
0.000851364
0.000850968
0.000850595
0.000850238
0.000849902
0.000849578
0.000849274
0.000848979
0.0008487
0.000848427
0.000848168
0.00084791
0.000847667
0.00084742
0.000847187
0.000846947
0.000846723
0.000851778
0.000851367
0.000850969
0.000850603
0.000850243
0.00084991
0.000849573
0.000849254
0.000848916
0.000848587
0.000848223
0.000847865
0.000847456
0.00084706
0.000846596
0.00084616
0.000845637
0.00084517
0.000851779
0.000851381
0.000850972
0.000850624
0.000850209
0.000849789
0.000849233
0.000848616
0.000847803
0.000846896
0.000845768
0.00084456
0.000843125
0.000841663
0.000839959
0.000838332
0.000836385
0.000834698
0.000851855
0.000851467
0.000850932
0.000850394
0.000849126
0.000847458
0.000844947
0.00084194
0.000838072
0.000833848
0.00082896
0.000823929
0.000818453
0.000812997
0.000807277
0.000801726
0.000795841
0.000790773
0.000852785
0.00085138
0.000849189
0.000845095
0.000836884
0.000827817
0.000815748
0.000802823
0.000788373
0.000774369
0.000759662
0.000746077
0.000732118
0.000719683
0.000706819
0.000695842
0.000684087
0.000674695
0.000858211
0.000842299
0.000828961
0.000803015
0.000769257
0.000735475
0.000700803
0.000669705
0.000639499
0.000613594
0.000588613
0.000567746
0.000547316
0.000530659
0.000513866
0.00050061
0.000486568
0.000476068
0.000864337
0.000785613
0.000712709
0.000628304
0.00055828
0.00050309
0.000455748
0.000418868
0.000386625
0.000361594
0.000338764
0.000321228
0.000304415
0.000291772
0.000278912
0.000269549
0.00025937
0.000252305
0.000775957
0.000540063
0.000397942
0.000312965
0.000258158
0.000219635
0.000190507
0.000169565
0.000152553
0.000139992
0.000129095
0.000121018
0.000113528
0.000108076
0.000102634
9.88118e-05
9.46879e-05
9.19153e-05
0.000323583
0.00016484
0.000111417
8.60758e-05
7.08266e-05
6.13546e-05
5.50185e-05
5.08857e-05
4.79533e-05
4.60098e-05
4.45906e-05
4.36882e-05
4.30394e-05
4.2695e-05
4.24553e-05
4.24393e-05
4.24359e-05
4.26226e-05
3.26574e-05
3.90518e-05
4.3892e-05
4.69715e-05
4.93654e-05
5.11699e-05
5.25343e-05
5.34595e-05
5.41141e-05
5.44634e-05
5.46907e-05
5.46975e-05
5.46544e-05
5.45501e-05
5.43773e-05
5.41699e-05
5.3945e-05
5.37084e-05
2.84779e-06
7.8452e-06
9.41796e-06
1.06873e-05
1.16823e-05
1.24678e-05
1.30986e-05
1.3614e-05
1.40431e-05
1.44299e-05
1.48029e-05
1.5167e-05
1.55332e-05
1.59096e-05
1.62997e-05
1.67022e-05
1.71148e-05
1.75377e-05
1.7982e-05
1.84825e-05
1.90922e-05
1.97992e-05
2.05674e-05
2.13834e-05
2.22466e-05
2.31593e-05
2.41241e-05
2.51412e-05
2.62078e-05
2.73163e-05
2.84554e-05
2.96181e-05
3.0797e-05
3.19832e-05
3.31714e-05
3.43564e-05
3.55351e-05
3.67049e-05
3.78642e-05
3.90122e-05
4.01491e-05
4.12756e-05
4.23935e-05
4.35056e-05
4.46158e-05
4.57298e-05
4.68553e-05
4.8003e-05
4.91445e-05
5.02798e-05
5.14092e-05
5.25339e-05
5.36539e-05
5.477e-05
5.58823e-05
5.69915e-05
5.80975e-05
5.92008e-05
6.03013e-05
6.13993e-05
6.24946e-05
6.35873e-05
6.46772e-05
6.57643e-05
6.68483e-05
6.7929e-05
6.90062e-05
7.00795e-05
7.11485e-05
7.2213e-05
7.32724e-05
7.43264e-05
7.53744e-05
7.64161e-05
7.74508e-05
7.84781e-05
7.94973e-05
8.0508e-05
8.15095e-05
8.25014e-05
8.34829e-05
8.44536e-05
8.54127e-05
8.63598e-05
8.7294e-05
8.8215e-05
8.9122e-05
9.00144e-05
9.08915e-05
9.17528e-05
9.25975e-05
9.34248e-05
9.4234e-05
9.50242e-05
9.57944e-05
9.65436e-05
9.72706e-05
9.79742e-05
9.86532e-05
9.9307e-05
9.9936e-05
0.000100544
0.000101133
0.000101697
0.000102239
0.000102758
0.000103254
0.000103726
0.000104174
0.000104598
0.000104998
0.000105373
0.000105722
0.000106047
0.000106346
0.000106619
0.000106866
0.000107087
0.000107282
0.00010745
0.000107592
0.000107708
0.000107797
0.00010786
0.000107896
0.000107905
0.000107888
0.000107845
0.000107776
0.000107681
0.000107559
0.000107413
0.000107246
0.000107048
0.000106823
0.000106571
0.0001063
0.000106009
0.000105689
0.000105348
0.000104983
0.000104596
0.000104186
0.000103756
0.000103305
0.000102833
0.000102341
0.00010183
0.000101301
0.000100753
0.000100187
9.96042e-05
9.90052e-05
9.83905e-05
9.77608e-05
9.71169e-05
9.64593e-05
9.57889e-05
9.51065e-05
9.44128e-05
9.37086e-05
9.29951e-05
9.22737e-05
9.15471e-05
9.08256e-05
9.02108e-05
8.97782e-05
8.9367e-05
8.89543e-05
8.85382e-05
8.81185e-05
8.76952e-05
8.72682e-05
8.68365e-05
8.63978e-05
8.59471e-05
8.5474e-05
8.49473e-05
8.43079e-05
8.2449e-05
4.47779e-06
1.83761e-05
4.07209e-05
6.01256e-05
7.43575e-05
8.43815e-05
9.14762e-05
9.65328e-05
0.000100079
0.000102413
0.000104121
0.000105768
0.000107572
0.00010956
0.000111666
0.000113795
0.000115865
0.000117823
0.000119656
0.000121422
0.000122928
0.000124253
0.000125562
0.000126958
0.000128516
0.000130308
0.000132418
0.000134958
0.000138083
0.000141849
0.000146059
0.000150698
0.000155742
0.000161189
0.000167009
0.000173163
0.000179644
0.000186414
0.000193438
0.000200682
0.000208111
0.000215689
0.000223383
0.00023116
0.000238989
0.000246846
0.000254716
0.000262604
0.00027055
0.000278534
0.000286571
0.000294657
0.000302799
0.000310997
0.000319256
0.000327579
0.00033597
0.000344431
0.000352967
0.000361582
0.000370277
0.000379057
0.000387922
0.000396876
0.000405919
0.000415053
0.000424279
0.000433596
0.000443004
0.000452503
0.00046209
0.000471766
0.000481526
0.000491369
0.000501292
0.00051129
0.000521361
0.000531499
0.000541699
0.000551958
0.000562269
0.000572626
0.000583024
0.000593457
0.000603918
0.0006144
0.000624898
0.000635405
0.000645914
0.00065642
0.000666916
0.000677397
0.000687858
0.000698291
0.00070869
0.000719046
0.000729344
0.000739562
0.000749659
0.000759563
0.00076914
0.000778169
0.000786628
0.000795028
0.000803275
0.000811387
0.000819354
0.000827171
0.000834832
0.000842332
0.000849665
0.000856824
0.000863804
0.0008706
0.000877207
0.00088362
0.000889833
0.000895844
0.000901646
0.000907237
0.000912613
0.000917769
0.000922703
0.00092741
0.000931889
0.000936135
0.000940148
0.000943926
0.000947469
0.000950777
0.000953849
0.000956675
0.000959279
0.000961711
0.000963794
0.0009655
0.000967028
0.000968472
0.000969603
0.000970479
0.000971115
0.000971511
0.000971672
0.000971598
0.000971293
0.000970761
0.000970006
0.000969031
0.000967841
0.000966439
0.00096483
0.00096302
0.000961013
0.000958814
0.00095643
0.000953866
0.000951129
0.000948224
0.000945159
0.00094194
0.000938571
0.000935056
0.000931392
0.00092754
0.000923288
0.000917601
0.000910302
0.000902483
0.00089447
0.000886354
0.000878171
0.000869933
0.000861648
0.000853312
0.000844903
0.000836374
0.000827572
0.000818226
0.000806912
0.000778959
5.7948e-06
2.74156e-05
6.30181e-05
9.59361e-05
0.000122405
0.000142456
0.000157153
0.000167822
0.000175626
0.000181425
0.000185959
0.000189814
0.000193378
0.000196865
0.000200362
0.000203879
0.000207388
0.000210853
0.000214239
0.000217512
0.000220944
0.000224712
0.000228929
0.000233696
0.000239109
0.000245246
0.000252151
0.000259812
0.000268113
0.000276982
0.000286593
0.000296942
0.000307985
0.000319703
0.000332401
0.000345805
0.000359673
0.000373941
0.000388553
0.000403457
0.000418605
0.00043396
0.000449481
0.000465138
0.000480906
0.000496767
0.000512709
0.000528732
0.000544856
0.000561078
0.000577402
0.000593832
0.000610374
0.000627031
0.000643811
0.000660717
0.000677756
0.000694931
0.000712248
0.000729714
0.000747334
0.000765111
0.000783047
0.000801145
0.000819403
0.000837824
0.000856406
0.000875147
0.000894045
0.000913097
0.000932298
0.000951643
0.000971128
0.000990744
0.00101049
0.00103034
0.00105031
0.00107038
0.00109053
0.00111076
0.00113106
0.00115142
0.00117182
0.00119225
0.0012127
0.00123315
0.0012536
0.00127402
0.00129442
0.00131476
0.00133504
0.00135525
0.00137536
0.00139536
0.00141523
0.00143494
0.00145447
0.00147375
0.00149275
0.00151138
0.00152956
0.00154722
0.00156448
0.0015815
0.00159824
0.00161467
0.00163081
0.00164662
0.0016621
0.00167724
0.00169203
0.00170644
0.00172048
0.00173413
0.00174738
0.00176022
0.00177264
0.00178464
0.0017962
0.00180731
0.00181797
0.00182817
0.00183791
0.00184718
0.00185596
0.00186427
0.00187208
0.00187941
0.00188624
0.00189259
0.00189844
0.00190379
0.00190868
0.00191319
0.00191706
0.00192014
0.00192286
0.00192525
0.00192709
0.00192841
0.00192923
0.00192956
0.00192941
0.00192877
0.00192766
0.00192609
0.00192405
0.00192157
0.00191864
0.00191528
0.00191149
0.00190729
0.00190269
0.0018977
0.00189232
0.00188657
0.00188047
0.00187403
0.00186726
0.00186017
0.00185278
0.00184509
0.0018371
0.00182875
0.00181979
0.00180941
0.00179737
0.00178449
0.00177119
0.00175761
0.00174386
0.00172995
0.00171591
0.00170174
0.00168739
0.00167276
0.00165758
0.00164107
0.00162048
0.00157832
6.73012e-06
3.78077e-05
8.46346e-05
0.000126769
0.000160584
0.000186522
0.000205927
0.000220261
0.000230866
0.00023888
0.000245229
0.000250622
0.000255565
0.000260387
0.000265279
0.00027034
0.000275626
0.000281174
0.000287037
0.000293297
0.000300078
0.000307502
0.000315668
0.000324661
0.000334549
0.000345377
0.000357163
0.000369902
0.000383573
0.000398172
0.00041372
0.000430204
0.000447607
0.000465881
0.000484605
0.000503779
0.000523448
0.000543559
0.000564045
0.000584842
0.000605904
0.000627219
0.000648758
0.000670497
0.000692427
0.000714553
0.000736905
0.000759448
0.000782143
0.000804987
0.000827984
0.00085114
0.000874461
0.000897951
0.000921618
0.000945468
0.000969504
0.000993734
0.00101816
0.00104279
0.00106764
0.00109269
0.00111796
0.00114344
0.00116914
0.00119505
0.00122117
0.00124749
0.00127402
0.00130074
0.00132765
0.00135474
0.001382
0.00140942
0.00143699
0.00146469
0.00149252
0.00152047
0.00154851
0.00157663
0.00160482
0.00163306
0.00166133
0.00168961
0.0017179
0.00174616
0.00177438
0.00180255
0.00183064
0.00185862
0.00188649
0.00191422
0.00194178
0.00196915
0.00199629
0.00202318
0.00204979
0.00207605
0.00210194
0.00212738
0.00215233
0.00217681
0.00220088
0.00222457
0.00224787
0.00227076
0.00229322
0.00231523
0.00233678
0.00235785
0.00237842
0.00239848
0.00241802
0.00243701
0.00245544
0.0024733
0.00249059
0.00250727
0.00252336
0.00253882
0.00255366
0.00256786
0.00258142
0.00259432
0.00260656
0.00261813
0.00262902
0.00263924
0.00264878
0.00265763
0.0026658
0.00267329
0.00268019
0.00268657
0.00269189
0.00269626
0.00270023
0.00270358
0.0027062
0.00270813
0.00270936
0.00270992
0.0027098
0.00270902
0.00270758
0.0027055
0.00270279
0.00269944
0.00269549
0.00269093
0.00268578
0.00268005
0.00267376
0.00266692
0.00265954
0.00265165
0.00264326
0.00263439
0.00262505
0.00261526
0.00260504
0.0025944
0.00258334
0.0025718
0.00255959
0.00254621
0.00253148
0.00251583
0.00249961
0.00248301
0.00246611
0.00244897
0.00243164
0.00241412
0.00239637
0.00237828
0.00235951
0.00233913
0.0023139
0.00226912
7.38653e-06
4.84693e-05
0.000105325
0.000154867
0.00019445
0.000224817
0.000247696
0.000264817
0.000277715
0.000287684
0.000295774
0.000302792
0.000309329
0.000315793
0.000322443
0.000329445
0.000336904
0.0003449
0.000353513
0.000362827
0.000372935
0.000383923
0.000395868
0.000408829
0.000422847
0.000437943
0.000454119
0.000471361
0.000489642
0.000508931
0.000529186
0.000550349
0.000572339
0.000595055
0.000618369
0.000642231
0.000666609
0.000691456
0.000716727
0.000742389
0.000768402
0.000794706
0.000821269
0.00084807
0.00087509
0.000902307
0.000929686
0.000957234
0.000984978
0.00101292
0.00104107
0.00106943
0.001098
0.00112679
0.00115581
0.00118505
0.00121452
0.00124423
0.00127416
0.00130434
0.00133476
0.00136543
0.00139636
0.00142752
0.00145894
0.00149059
0.00152249
0.00155461
0.00158695
0.0016195
0.00165226
0.00168521
0.00171834
0.00175163
0.00178508
0.00181866
0.00185237
0.00188617
0.00192007
0.00195403
0.00198804
0.00202207
0.00205612
0.00209015
0.00212414
0.00215808
0.00219194
0.0022257
0.00225934
0.00229282
0.00232613
0.00235923
0.00239211
0.00242473
0.00245707
0.00248908
0.00252074
0.00255202
0.00258287
0.00261328
0.00264325
0.00267275
0.00270179
0.00273038
0.00275849
0.00278611
0.00281322
0.0028398
0.00286582
0.00289127
0.00291613
0.00294038
0.00296401
0.00298699
0.00300931
0.00303096
0.00305192
0.00307218
0.00309172
0.00311053
0.00312859
0.00314591
0.00316246
0.00317824
0.00319324
0.00320744
0.00322085
0.00323346
0.00324526
0.00325626
0.00326645
0.00327586
0.00328467
0.00329258
0.00329938
0.00330512
0.00331043
0.00331491
0.00331854
0.00332134
0.00332333
0.00332452
0.0033249
0.0033245
0.00332332
0.00332137
0.00331867
0.00331521
0.00331102
0.00330611
0.00330049
0.00329418
0.00328718
0.00327952
0.00327122
0.00326228
0.00325273
0.0032426
0.00323189
0.00322063
0.00320883
0.00319653
0.0031837
0.00317033
0.00315628
0.00314127
0.00312518
0.00310823
0.00309064
0.00307258
0.00305414
0.00303541
0.00301642
0.0029972
0.00297772
0.00295789
0.00293737
0.00291514
0.0028881
0.00284537
7.8552e-06
5.82616e-05
0.00012421
0.000180358
0.000225008
0.000259302
0.000285312
0.000305011
0.000320106
0.000332018
0.000341893
0.000350622
0.000358865
0.00036709
0.000375614
0.000384646
0.000394327
0.00040476
0.000416028
0.000428208
0.000441369
0.000455575
0.000470872
0.000487295
0.000504859
0.000523563
0.00054339
0.000564309
0.000586278
0.000609244
0.000633146
0.000657912
0.000683465
0.000709724
0.000736614
0.000764078
0.000792069
0.000820541
0.000849451
0.000878757
0.000908421
0.000938406
0.000968683
0.000999231
0.00103003
0.00106107
0.00109234
0.00112383
0.00115555
0.00118751
0.0012197
0.00125214
0.00128481
0.00131773
0.0013509
0.00138431
0.00141799
0.00145193
0.00148613
0.0015206
0.00155534
0.00159032
0.00162556
0.00166105
0.00169678
0.00173275
0.00176895
0.00180538
0.00184202
0.00187886
0.0019159
0.00195312
0.0019905
0.00202804
0.00206571
0.0021035
0.0021414
0.00217938
0.00221743
0.00225552
0.00229364
0.00233177
0.00236988
0.00240795
0.00244597
0.0024839
0.00252172
0.00255942
0.00259696
0.00263432
0.00267147
0.00270839
0.00274505
0.00278143
0.00281748
0.00285319
0.00288852
0.00292345
0.00295795
0.002992
0.00302559
0.00305869
0.00309131
0.00312342
0.00315502
0.00318607
0.00321655
0.00324645
0.00327575
0.00330441
0.00333243
0.00335978
0.00338645
0.00341241
0.00343765
0.00346215
0.0034859
0.00350888
0.00353107
0.00355246
0.00357305
0.00359281
0.00361173
0.0036298
0.00364702
0.00366338
0.00367886
0.00369346
0.00370718
0.00372001
0.00373195
0.00374312
0.00375358
0.00376292
0.00377112
0.00377834
0.00378494
0.00379061
0.00379537
0.00379922
0.00380218
0.00380425
0.00380544
0.00380576
0.00380523
0.00380384
0.00380162
0.00379857
0.0037947
0.00379003
0.00378458
0.00377834
0.00377135
0.00376361
0.00375514
0.00374597
0.0037361
0.00372556
0.00371437
0.00370255
0.00369013
0.00367711
0.0036635
0.0036493
0.00363441
0.00361871
0.00360211
0.00358472
0.00356667
0.0035481
0.0035291
0.00350976
0.00349012
0.00347023
0.0034501
0.00342965
0.00340859
0.00338599
0.00335912
0.00332022
8.1913e-06
6.7342e-05
0.00014114
0.000203093
0.000252337
0.000290356
0.00031945
0.00034177
0.000359147
0.000373103
0.000384863
0.000395387
0.000405396
0.000415413
0.000425802
0.000436809
0.0004486
0.000461292
0.000474968
0.000489693
0.000505519
0.000522484
0.000540613
0.000559916
0.000580388
0.00060201
0.00062475
0.000648565
0.000673402
0.000699202
0.000725901
0.00075343
0.00078172
0.000810705
0.000840326
0.000870528
0.000901262
0.000932483
0.00096415
0.000996224
0.00102867
0.00106146
0.00109458
0.00112799
0.00116168
0.00119564
0.00122987
0.00126435
0.00129909
0.00133409
0.00136933
0.00140483
0.00144058
0.00147658
0.00151284
0.00154936
0.00158613
0.00162317
0.00166046
0.00169802
0.00173582
0.00177388
0.00181218
0.00185072
0.0018895
0.00192851
0.00196773
0.00200717
0.00204681
0.00208664
0.00212665
0.00216683
0.00220716
0.00224762
0.00228821
0.00232891
0.0023697
0.00241055
0.00245146
0.0024924
0.00253335
0.0025743
0.00261522
0.00265608
0.00269688
0.00273757
0.00277815
0.00281859
0.00285885
0.00289892
0.00293878
0.00297838
0.00301772
0.00305676
0.00309547
0.00313382
0.0031718
0.00320937
0.00324651
0.00328321
0.00331943
0.00335516
0.00339039
0.00342509
0.00345925
0.00349285
0.00352585
0.00355824
0.00358999
0.00362109
0.00365151
0.00368123
0.00371024
0.0037385
0.00376601
0.00379275
0.00381869
0.00384383
0.00386814
0.00389162
0.00391424
0.00393599
0.00395686
0.00397685
0.00399593
0.0040141
0.00403136
0.00404768
0.00406307
0.00407753
0.00409106
0.00410388
0.0041157
0.00412647
0.00413605
0.00414474
0.00415262
0.00415953
0.00416548
0.00417048
0.00417453
0.00417765
0.00417984
0.00418111
0.00418147
0.00418094
0.00417951
0.0041772
0.00417403
0.00417001
0.00416514
0.00415944
0.00415292
0.00414561
0.00413752
0.00412865
0.00411904
0.0041087
0.00409765
0.00408592
0.00407351
0.00406045
0.00404676
0.00403242
0.00401741
0.00400165
0.0039851
0.00396782
0.00394988
0.00393139
0.00391245
0.00389312
0.00387349
0.0038536
0.00383348
0.00381312
0.00379227
0.00377014
0.00374445
0.00370943
8.45813e-06
7.49617e-05
0.000155307
0.000222479
0.000276064
0.000317792
0.000350061
0.000375134
0.000394938
0.000411071
0.000424826
0.000437221
0.000449032
0.00046083
0.00047302
0.000485881
0.000499602
0.000514308
0.000530084
0.000546985
0.000565048
0.000584293
0.000604727
0.000626341
0.000649118
0.000673028
0.000698025
0.000724061
0.000751077
0.000779016
0.000807813
0.000837406
0.000867734
0.000898738
0.000930384
0.000962609
0.000995365
0.00102861
0.0010623
0.0010964
0.00113088
0.00116572
0.00120091
0.00123641
0.0012722
0.00130829
0.00134465
0.0013813
0.00141821
0.00145537
0.00149279
0.00153046
0.00156837
0.00160653
0.00164494
0.00168359
0.00172249
0.00176163
0.00180102
0.00184064
0.00188051
0.0019206
0.00196093
0.00200148
0.00204224
0.00208322
0.0021244
0.00216578
0.00220734
0.00224908
0.00229099
0.00233305
0.00237525
0.00241759
0.00246003
0.00250257
0.0025452
0.00258789
0.00263063
0.00267341
0.00271619
0.00275897
0.00280172
0.00284442
0.00288705
0.00292959
0.00297201
0.0030143
0.00305642
0.00309836
0.00314008
0.00318157
0.0032228
0.00326374
0.00330436
0.00334464
0.00338455
0.00342408
0.00346318
0.00350185
0.00354005
0.00357777
0.00361499
0.00365168
0.00368782
0.00372338
0.00375835
0.00379269
0.0038264
0.00385943
0.00389178
0.00392341
0.00395431
0.00398446
0.00401383
0.00404242
0.00407019
0.00409713
0.00412323
0.00414847
0.00417283
0.0041963
0.00421886
0.00424052
0.00426124
0.00428102
0.00429986
0.00431774
0.00433466
0.0043506
0.00436566
0.00437992
0.00439306
0.00440522
0.00441618
0.0044263
0.00443547
0.00444365
0.00445084
0.00445704
0.00446228
0.00446655
0.00446986
0.00447223
0.00447366
0.00447416
0.00447374
0.00447241
0.00447018
0.00446707
0.00446307
0.00445822
0.00445252
0.00444598
0.00443862
0.00443045
0.0044215
0.00441177
0.00440129
0.00439008
0.00437815
0.00436553
0.00435223
0.00433825
0.00432359
0.00430822
0.00429212
0.00427531
0.00425786
0.00423985
0.00422136
0.00420246
0.00418323
0.00416376
0.00414409
0.00412424
0.00410405
0.00408286
0.00405884
0.00402804
8.96914e-06
7.85898e-05
0.000164717
0.000237394
0.000295545
0.000341232
0.000376875
0.000404874
0.000427255
0.000445691
0.000461537
0.000475862
0.00048949
0.000503034
0.000516935
0.000531504
0.000546948
0.000563405
0.000580962
0.000599671
0.000619557
0.000640625
0.000662867
0.000686266
0.000710803
0.000736457
0.000763159
0.000790849
0.00081947
0.000848962
0.000879268
0.000910327
0.000942079
0.000974462
0.00100744
0.00104101
0.00107511
0.00110972
0.00114479
0.00118029
0.00121619
0.00125244
0.001289
0.00132585
0.001363
0.00140044
0.00143817
0.0014762
0.0015145
0.00155304
0.00159182
0.00163082
0.00167005
0.0017095
0.00174918
0.00178908
0.0018292
0.00186954
0.0019101
0.00195088
0.00199187
0.00203308
0.00207449
0.00211611
0.00215793
0.00219994
0.00224215
0.00228453
0.0023271
0.00236984
0.00241274
0.00245579
0.00249898
0.0025423
0.00258575
0.0026293
0.00267294
0.00271666
0.00276044
0.00280427
0.00284813
0.00289201
0.00293587
0.00297971
0.00302351
0.00306724
0.00311087
0.0031544
0.00319779
0.00324102
0.00328407
0.00332691
0.00336951
0.00341185
0.00345391
0.00349565
0.00353705
0.00357808
0.00361872
0.00365895
0.00369873
0.00373804
0.00377686
0.00381517
0.00385293
0.00389013
0.00392674
0.00396273
0.00399807
0.00403275
0.00406674
0.00410002
0.00413256
0.00416435
0.00419535
0.00422556
0.00425494
0.00428349
0.00431119
0.00433801
0.00436394
0.00438897
0.00441308
0.00443626
0.00445849
0.00447977
0.00450009
0.00451943
0.00453779
0.00455516
0.00457169
0.00458724
0.00460175
0.00461526
0.00462764
0.00463915
0.00464964
0.00465911
0.00466757
0.00467504
0.00468152
0.00468702
0.00469156
0.00469513
0.00469774
0.00469941
0.00470014
0.00469995
0.00469884
0.00469683
0.00469392
0.00469013
0.00468547
0.00467995
0.00467358
0.00466639
0.00465837
0.00464956
0.00463996
0.00462959
0.00461848
0.00460663
0.00459407
0.00458081
0.00456685
0.00455219
0.00453682
0.00452076
0.00450406
0.00448679
0.00446902
0.00445082
0.00443229
0.00441351
0.00439456
0.00437549
0.0043562
0.00433616
0.00431398
0.00428739
9.52459e-06
7.99406e-05
0.000170526
0.000248314
0.000310921
0.000360627
0.000399744
0.000430777
0.000455837
0.000476663
0.000494662
0.000510948
0.000526383
0.000541619
0.00055713
0.000573253
0.000590214
0.000608161
0.00062719
0.000647367
0.000668716
0.000691208
0.000714811
0.000739481
0.000765148
0.000791797
0.000819438
0.000848032
0.000877527
0.000907869
0.000939004
0.000970882
0.00100346
0.00103668
0.00107054
0.00110496
0.00113991
0.00117535
0.00121122
0.0012475
0.00128415
0.00132116
0.00135854
0.00139623
0.00143423
0.00147251
0.00151104
0.00154972
0.00158867
0.00162783
0.00166717
0.0017067
0.00174642
0.00178633
0.00182642
0.00186671
0.00190718
0.00194785
0.00198872
0.00202978
0.00207103
0.00211247
0.00215411
0.00219594
0.00223796
0.00228018
0.00232258
0.00236517
0.00240795
0.0024509
0.00249403
0.00253733
0.0025808
0.00262441
0.00266818
0.00271208
0.00275611
0.00280025
0.00284449
0.00288881
0.00293321
0.00297766
0.00302215
0.00306666
0.00311117
0.00315566
0.0032001
0.00324448
0.00328876
0.00333293
0.00337696
0.00342083
0.00346451
0.00350796
0.00355117
0.0035941
0.00363673
0.00367903
0.00372097
0.00376252
0.00380366
0.00384435
0.00388458
0.00392431
0.00396351
0.00400216
0.00404023
0.0040777
0.00411453
0.00415071
0.0041862
0.00422098
0.00425503
0.00428833
0.00432084
0.00435256
0.00438345
0.00441351
0.0044427
0.00447102
0.00449844
0.00452495
0.00455053
0.00457518
0.00459887
0.00462159
0.00464335
0.00466411
0.00468388
0.00470268
0.00472057
0.00473743
0.00475332
0.00476819
0.00478202
0.00479491
0.00480675
0.00481754
0.00482732
0.0048361
0.00484389
0.00485069
0.00485652
0.00486138
0.00486527
0.00486822
0.00487022
0.0048713
0.00487144
0.00487068
0.00486901
0.00486645
0.00486301
0.0048587
0.00485353
0.00484751
0.00484066
0.00483298
0.0048245
0.00481523
0.00480518
0.00479437
0.00478282
0.00477054
0.00475755
0.00474384
0.00472943
0.00471433
0.00469859
0.00468226
0.00466541
0.00464812
0.00463048
0.00461258
0.00459453
0.0045764
0.00455814
0.00453935
0.00451895
0.00449578
1.00118e-05
8.01095e-05
0.000173802
0.000255907
0.000322564
0.000376112
0.00041865
0.00045272
0.000480484
0.000503726
0.000523893
0.000542132
0.00055934
0.000576192
0.000593195
0.000610725
0.000629019
0.000648197
0.000668323
0.000689389
0.000711483
0.000734664
0.000758932
0.000784266
0.000810659
0.000838101
0.000866528
0.000895856
0.000926025
0.000956982
0.000988678
0.00102107
0.0010541
0.00108774
0.00112194
0.00115665
0.00119182
0.00122742
0.00126343
0.0012998
0.00133652
0.00137357
0.00141091
0.00144852
0.00148637
0.00152448
0.00156282
0.00160147
0.00164036
0.00167939
0.00171852
0.00175775
0.00179712
0.00183662
0.00187627
0.00191608
0.00195606
0.0019962
0.00203651
0.002077
0.00211768
0.00215855
0.00219961
0.00224087
0.00228234
0.00232401
0.0023659
0.002408
0.00245032
0.00249286
0.00253561
0.00257858
0.00262176
0.00266514
0.00270873
0.00275251
0.00279648
0.00284063
0.00288494
0.00292939
0.00297399
0.00301871
0.00306353
0.00310843
0.0031534
0.00319841
0.00324344
0.00328846
0.00333346
0.0033784
0.00342325
0.003468
0.00351261
0.00355705
0.00360128
0.00364529
0.00368904
0.0037325
0.00377564
0.00381843
0.00386083
0.00390282
0.00394436
0.00398543
0.004026
0.00406603
0.0041055
0.00414438
0.00418264
0.00422026
0.0042572
0.00429343
0.00432894
0.0043637
0.00439769
0.00443087
0.00446324
0.00449476
0.00452543
0.00455521
0.00458409
0.00461206
0.0046391
0.00466519
0.00469032
0.00471449
0.00473766
0.00475985
0.00478105
0.00480125
0.00482048
0.00483871
0.00485599
0.00487227
0.00488754
0.00490189
0.00491509
0.00492724
0.00493839
0.00494854
0.00495769
0.00496587
0.00497306
0.00497929
0.00498456
0.00498888
0.00499226
0.00499471
0.00499623
0.00499684
0.00499655
0.00499536
0.00499329
0.00499035
0.00498654
0.00498187
0.00497636
0.00497002
0.00496285
0.00495487
0.0049461
0.00493654
0.00492622
0.00491514
0.00490333
0.00489078
0.00487753
0.00486358
0.00484897
0.00483376
0.004818
0.00480177
0.00478517
0.00476831
0.00475128
0.00473419
0.00471704
0.00469953
0.00468081
0.00466048
1.04274e-05
7.94263e-05
0.00017505
0.000260615
0.000330804
0.000387871
0.000433651
0.000470659
0.00050107
0.000526684
0.000548973
0.00056912
0.000588043
0.000606395
0.00062465
0.000643107
0.000662115
0.000681918
0.000702658
0.000724456
0.000747373
0.000771343
0.00079633
0.000822308
0.000849246
0.00087708
0.000905731
0.000935178
0.000965383
0.000996304
0.00102789
0.00106011
0.0010929