/*--------------------------------*- C++ -*----------------------------------*\
| =========                 |                                                 |
| \\      /  F ield         | OpenFOAM: The Open Source CFD Toolbox           |
|  \\    /   O peration     | Version:  v2006                                 |
|   \\  /    A nd           | Website:  www.openfoam.com                      |
|    \\/     M anipulation  |                                                 |
\*---------------------------------------------------------------------------*/
FoamFile
{
    version     2.0;
    format      ascii;
    class       surfaceScalarField;
    location    "280";
    object      phi;
}
// * * * * * * * * * * * * * * * * * * * * * * * * * * * * * * * * * * * * * //

dimensions      [0 3 -1 0 0 0 0];
oriented        oriented;


internalField   nonuniform List<scalar> 
24170
(
3.11512e-06
7.32901e-08
3.01296e-06
1.02152e-07
2.91749e-06
9.54718e-08
2.82631e-06
9.118e-08
2.7403e-06
8.6006e-08
2.66278e-06
7.75219e-08
2.59488e-06
6.79014e-08
2.53596e-06
5.89173e-08
2.48491e-06
5.10466e-08
2.44065e-06
4.42672e-08
2.4022e-06
3.8449e-08
2.36875e-06
3.34451e-08
2.33964e-06
2.91086e-08
2.31432e-06
2.53182e-08
2.29249e-06
2.18326e-08
2.27366e-06
1.8834e-08
2.25761e-06
1.60441e-08
1.26883e-08
2.24492e-06
3.46865e-06
2.18855e-08
3.48678e-06
8.40256e-08
3.49345e-06
8.87961e-08
3.49232e-06
9.23088e-08
3.48432e-06
9.40004e-08
3.47071e-06
9.11338e-08
3.45278e-06
8.58322e-08
3.43174e-06
7.99574e-08
3.40869e-06
7.40942e-08
3.38456e-06
6.84e-08
3.36004e-06
6.29658e-08
3.33564e-06
5.78401e-08
3.31175e-06
5.30069e-08
3.28861e-06
4.84535e-08
3.26643e-06
4.4012e-08
3.24544e-06
3.98291e-08
3.22638e-06
3.50994e-08
2.8852e-08
3.21022e-06
3.66801e-06
1.6392e-08
3.68031e-06
7.17255e-08
3.69e-06
7.91009e-08
3.70002e-06
8.22892e-08
3.70913e-06
8.48917e-08
3.71622e-06
8.4043e-08
3.72119e-06
8.0869e-08
3.72423e-06
7.69143e-08
3.72559e-06
7.27352e-08
3.72551e-06
6.84737e-08
3.72426e-06
6.42191e-08
3.72206e-06
6.00406e-08
3.71911e-06
5.59525e-08
3.71562e-06
5.19436e-08
3.71173e-06
4.79084e-08
3.70777e-06
4.37852e-08
3.70379e-06
3.90848e-08
3.32309e-08
3.69941e-06
3.92495e-06
1.68274e-08
3.93556e-06
6.1115e-08
3.94312e-06
7.15423e-08
3.95014e-06
7.52659e-08
3.95682e-06
7.82099e-08
3.96261e-06
7.82512e-08
3.96757e-06
7.59081e-08
3.9719e-06
7.25879e-08
3.97569e-06
6.89481e-08
3.97899e-06
6.51705e-08
3.98187e-06
6.13428e-08
3.98437e-06
5.75319e-08
3.98657e-06
5.37555e-08
3.98852e-06
4.99946e-08
3.99027e-06
4.61599e-08
3.99191e-06
4.21457e-08
3.99329e-06
3.77011e-08
3.25234e-08
3.994e-06
4.20772e-06
1.6231e-08
4.21609e-06
5.27501e-08
4.22226e-06
6.53723e-08
4.22774e-06
6.9782e-08
4.23318e-06
7.27676e-08
4.23821e-06
7.32242e-08
4.24274e-06
7.13825e-08
4.24686e-06
6.8466e-08
4.25065e-06
6.51588e-08
4.25415e-06
6.16687e-08
4.25741e-06
5.8086e-08
4.26046e-06
5.44773e-08
4.26335e-06
5.08655e-08
4.26611e-06
4.72327e-08
4.26876e-06
4.35081e-08
4.27131e-06
3.96034e-08
4.27363e-06
3.53803e-08
3.07046e-08
4.27545e-06
4.51042e-06
1.48954e-08
4.51713e-06
4.60461e-08
4.52283e-06
5.96652e-08
4.52797e-06
6.46498e-08
4.5331e-06
6.76312e-08
4.53796e-06
6.8367e-08
4.54238e-06
6.69554e-08
4.54644e-06
6.44152e-08
4.55019e-06
6.14086e-08
4.55369e-06
5.81653e-08
4.55699e-06
5.47861e-08
4.56012e-06
5.13412e-08
4.56313e-06
4.78613e-08
4.56602e-06
4.43357e-08
4.56882e-06
4.07166e-08
4.57148e-06
3.6942e-08
4.57392e-06
3.29419e-08
2.86835e-08
4.57594e-06
4.83415e-06
1.34677e-08
4.83991e-06
4.02862e-08
4.84554e-06
5.40299e-08
4.85066e-06
5.95329e-08
4.85572e-06
6.25718e-08
4.86055e-06
6.35396e-08
4.86499e-06
6.25115e-08
4.86908e-06
6.03247e-08
4.87289e-06
5.76027e-08
4.87646e-06
5.4593e-08
4.87984e-06
5.14086e-08
4.88305e-06
4.81241e-08
4.88614e-06
4.4779e-08
4.8891e-06
4.1373e-08
4.89194e-06
3.78806e-08
4.89461e-06
3.42669e-08
4.89704e-06
3.05099e-08
2.66332e-08
4.89909e-06
5.18096e-06
1.20923e-08
5.18606e-06
3.51874e-08
5.19158e-06
4.85024e-08
5.19672e-06
5.44007e-08
5.20177e-06
5.75148e-08
5.20665e-06
5.8663e-08
5.21119e-06
5.79687e-08
5.2154e-06
5.61118e-08
5.21934e-06
5.36659e-08
5.22304e-06
5.08891e-08
5.22655e-06
4.79044e-08
5.22988e-06
4.47913e-08
5.23306e-06
4.15974e-08
5.2361e-06
3.83347e-08
5.23898e-06
3.49977e-08
5.24167e-06
3.15755e-08
5.24411e-06
2.8076e-08
2.45464e-08
5.2462e-06
5.55268e-06
1.07539e-08
5.55721e-06
3.06577e-08
5.56252e-06
4.31877e-08
5.56764e-06
4.92823e-08
5.57271e-06
5.24412e-08
5.57767e-06
5.37111e-08
5.58234e-06
5.32968e-08
5.58671e-06
5.17437e-08
5.59081e-06
4.95647e-08
5.59467e-06
4.70218e-08
5.59833e-06
4.4245e-08
5.60181e-06
4.13181e-08
5.60511e-06
3.82958e-08
5.60824e-06
3.52024e-08
5.61119e-06
3.20488e-08
5.61392e-06
2.88433e-08
5.61639e-06
2.56103e-08
2.24063e-08
5.61853e-06
5.95107e-06
9.45873e-09
5.95511e-06
2.66169e-08
5.96017e-06
3.81342e-08
5.96524e-06
4.42089e-08
5.97032e-06
4.7363e-08
5.97533e-06
4.87e-08
5.98012e-06
4.85073e-08
5.98464e-06
4.72243e-08
5.98891e-06
4.52971e-08
5.99294e-06
4.29845e-08
5.99677e-06
4.04211e-08
6.00039e-06
3.76937e-08
6.00382e-06
3.48625e-08
6.00706e-06
3.19623e-08
6.0101e-06
2.90164e-08
6.01289e-06
2.60469e-08
6.01542e-06
2.30856e-08
2.01914e-08
6.01763e-06
6.37804e-06
8.2272e-09
6.38168e-06
2.29837e-08
6.38646e-06
3.33531e-08
6.39146e-06
3.92089e-08
6.39652e-06
4.22995e-08
6.40157e-06
4.36554e-08
6.40645e-06
4.36255e-08
6.4111e-06
4.25729e-08
6.41552e-06
4.08783e-08
6.41972e-06
3.87885e-08
6.4237e-06
3.64404e-08
6.42747e-06
3.39224e-08
6.43103e-06
3.12981e-08
6.43438e-06
2.86104e-08
6.43751e-06
2.58911e-08
6.44038e-06
2.31705e-08
6.44299e-06
2.04832e-08
1.78852e-08
6.44529e-06
5.74182e-06
7.23795e-09
5.74463e-06
2.01826e-08
5.74846e-06
2.95216e-08
5.75261e-06
3.50542e-08
5.75687e-06
3.80414e-08
5.76114e-06
3.93816e-08
5.76532e-06
3.94459e-08
5.76934e-06
3.85558e-08
5.77318e-06
3.70416e-08
5.77683e-06
3.51334e-08
5.78031e-06
3.2967e-08
5.7836e-06
3.06312e-08
5.7867e-06
2.81914e-08
5.78962e-06
2.56944e-08
5.79233e-06
2.31769e-08
5.79483e-06
2.06728e-08
5.7971e-06
1.82161e-08
1.58605e-08
5.79912e-06
6.99922e-06
6.17684e-09
7.00219e-06
1.72069e-08
7.00635e-06
2.53621e-08
7.011e-06
3.04113e-08
7.01583e-06
3.32049e-08
7.02073e-06
3.44819e-08
7.02557e-06
3.46108e-08
7.03025e-06
3.38726e-08
7.03475e-06
3.25448e-08
7.03904e-06
3.08356e-08
7.04314e-06
2.8876e-08
7.04701e-06
2.67535e-08
7.05067e-06
2.45332e-08
7.0541e-06
2.22645e-08
7.05729e-06
1.99864e-08
7.06023e-06
1.77343e-08
7.06291e-06
1.55396e-08
1.34522e-08
7.06531e-06
8.53197e-06
5.05288e-09
8.53509e-06
1.40841e-08
8.53955e-06
2.09044e-08
8.54467e-06
2.52905e-08
8.5501e-06
2.77741e-08
8.55566e-06
2.89213e-08
8.56121e-06
2.90698e-08
8.56662e-06
2.84602e-08
8.57184e-06
2.73176e-08
8.57686e-06
2.58218e-08
8.58164e-06
2.4094e-08
8.58618e-06
2.22174e-08
8.59046e-06
2.02544e-08
8.59447e-06
1.82538e-08
8.5982e-06
1.62545e-08
8.60164e-06
1.42907e-08
8.60479e-06
1.23897e-08
1.05958e-08
8.60765e-06
1.04004e-05
3.87739e-09
1.04036e-05
1.0836e-08
1.04084e-05
1.61738e-08
1.0414e-05
1.9706e-08
1.042e-05
2.17387e-08
1.04262e-05
2.26686e-08
1.04325e-05
2.27756e-08
1.04387e-05
2.22576e-08
1.04448e-05
2.12892e-08
1.04506e-05
2.00158e-08
1.04561e-05
1.85426e-08
1.04614e-05
1.69441e-08
1.04664e-05
1.52766e-08
1.0471e-05
1.35846e-08
1.04754e-05
1.19039e-08
1.04794e-05
1.02645e-08
1.04831e-05
8.68881e-09
7.21439e-09
1.04865e-05
1.2678e-05
2.65796e-09
1.26814e-05
7.46033e-09
1.26864e-05
1.11725e-08
1.26924e-05
1.36585e-08
1.26991e-05
1.50791e-08
1.27061e-05
1.56827e-08
1.27132e-05
1.56721e-08
1.27202e-05
1.51958e-08
1.27272e-05
1.43797e-08
1.27338e-05
1.33306e-08
1.27403e-05
1.21306e-08
1.27464e-05
1.08398e-08
1.27521e-05
9.50412e-09
1.27576e-05
8.1599e-09
1.27626e-05
6.83618e-09
1.27673e-05
5.55686e-09
1.27717e-05
4.3383e-09
3.21084e-09
1.27757e-05
1.54545e-05
1.3862e-09
1.5458e-05
3.91424e-09
1.54633e-05
5.84547e-09
1.54699e-05
7.09225e-09
1.54772e-05
7.72668e-09
1.5485e-05
7.87758e-09
1.54931e-05
7.66153e-09
1.55011e-05
7.16865e-09
1.5509e-05
6.47501e-09
1.55167e-05
5.64597e-09
1.55241e-05
4.73358e-09
1.55311e-05
3.77733e-09
1.55378e-05
2.80767e-09
1.55441e-05
1.84878e-09
1.55501e-05
9.19887e-10
1.55556e-05
3.65908e-11
1.55607e-05
-7.91639e-10
-1.54205e-09
1.55655e-05
1.8839e-05
2.29266e-11
1.88428e-05
7.34208e-11
1.88487e-05
1.60086e-11
1.8856e-05
-1.89166e-10
1.88642e-05
-5.23928e-10
1.8873e-05
-9.59367e-10
1.88822e-05
-1.47117e-09
1.88914e-05
-2.03714e-09
1.89005e-05
-2.63498e-09
1.89094e-05
-3.24507e-09
1.8918e-05
-3.85193e-09
1.89262e-05
-4.44331e-09
1.8934e-05
-5.00915e-09
1.89414e-05
-5.54116e-09
1.89483e-05
-6.03275e-09
1.89549e-05
-6.47838e-09
1.89609e-05
-6.87615e-09
-7.21146e-09
1.89666e-05
2.29649e-05
-1.53301e-09
2.29693e-05
-4.35621e-09
2.29761e-05
-6.75126e-09
2.29846e-05
-8.68995e-09
2.29943e-05
-1.01893e-08
2.30046e-05
-1.13356e-08
2.30154e-05
-1.22183e-08
2.30262e-05
-1.28916e-08
2.3037e-05
-1.33925e-08
2.30475e-05
-1.37561e-08
2.30577e-05
-1.4013e-08
2.30674e-05
-1.41853e-08
2.30767e-05
-1.42882e-08
2.30855e-05
-1.43328e-08
2.30938e-05
-1.43275e-08
2.31016e-05
-1.42785e-08
2.31089e-05
-1.41919e-08
-1.40618e-08
2.31157e-05
1.68119e-05
-2.73646e-09
1.68153e-05
-7.7623e-09
1.68205e-05
-1.19707e-08
1.68271e-05
-1.52085e-08
1.68344e-05
-1.75194e-08
1.68422e-05
-1.91369e-08
1.68502e-05
-2.02548e-08
1.68583e-05
-2.0973e-08
1.68663e-05
-2.13692e-08
1.6874e-05
-2.15231e-08
1.68815e-05
-2.15006e-08
1.68887e-05
-2.13481e-08
1.68955e-05
-2.10987e-08
1.6902e-05
-2.0778e-08
1.6908e-05
-2.04049e-08
1.69137e-05
-1.99929e-08
1.69191e-05
-1.95532e-08
-1.90848e-08
1.69241e-05
1.46357e-05
-3.87059e-09
1.4639e-05
-1.10269e-08
1.4644e-05
-1.70153e-08
1.46502e-05
-2.14118e-08
1.46571e-05
-2.43611e-08
1.46643e-05
-2.63363e-08
1.46716e-05
-2.76126e-08
1.4679e-05
-2.83094e-08
1.46861e-05
-2.85536e-08
1.46931e-05
-2.84765e-08
1.46998e-05
-2.81733e-08
1.47061e-05
-2.77079e-08
1.47121e-05
-2.7128e-08
1.47178e-05
-2.64711e-08
1.47232e-05
-2.57649e-08
1.47282e-05
-2.50289e-08
1.4733e-05
-2.42778e-08
-2.35146e-08
1.47374e-05
1.27412e-05
-4.89584e-09
1.27444e-05
-1.42725e-08
1.27495e-05
-2.2137e-08
1.27556e-05
-2.74652e-08
1.2762e-05
-3.08314e-08
1.27688e-05
-3.30817e-08
1.27756e-05
-3.4461e-08
1.27824e-05
-3.50697e-08
1.2789e-05
-3.51089e-08
1.27953e-05
-3.47701e-08
1.28013e-05
-3.41722e-08
1.28069e-05
-3.33921e-08
1.28123e-05
-3.24904e-08
1.28173e-05
-3.15148e-08
1.28221e-05
-3.04991e-08
1.28265e-05
-2.94658e-08
1.28307e-05
-2.84301e-08
-2.73957e-08
1.28345e-05
1.10917e-05
-5.67848e-09
1.1095e-05
-1.75425e-08
1.11004e-05
-2.75433e-08
1.11064e-05
-3.34573e-08
1.11125e-05
-3.69883e-08
1.11189e-05
-3.94273e-08
1.11253e-05
-4.08332e-08
1.11315e-05
-4.1291e-08
1.11375e-05
-4.10971e-08
1.11432e-05
-4.04879e-08
1.11486e-05
-3.95925e-08
1.11537e-05
-3.85002e-08
1.11585e-05
-3.72859e-08
1.1163e-05
-3.6007e-08
1.11672e-05
-3.47022e-08
1.11711e-05
-3.33973e-08
1.11748e-05
-3.21108e-08
-3.08507e-08
1.11783e-05
9.65564e-06
-6.10481e-09
9.65905e-06
-2.09492e-08
9.66465e-06
-3.31453e-08
9.67045e-06
-3.92576e-08
9.67637e-06
-4.29109e-08
9.68244e-06
-4.54911e-08
9.68839e-06
-4.67871e-08
9.6941e-06
-4.69986e-08
9.69954e-06
-4.654e-08
9.70471e-06
-4.56584e-08
9.70959e-06
-4.44743e-08
9.71418e-06
-4.30857e-08
9.71847e-06
-4.15793e-08
9.72248e-06
-4.00208e-08
9.72623e-06
-3.8452e-08
9.72974e-06
-3.68997e-08
9.733e-06
-3.53768e-08
-3.38771e-08
9.73603e-06
8.40494e-06
-5.6971e-09
8.40933e-06
-2.53303e-08
8.41475e-06
-3.85707e-08
8.41987e-06
-4.43751e-08
8.42545e-06
-4.84908e-08
8.43132e-06
-5.13634e-08
8.43705e-06
-5.25156e-08
8.44249e-06
-5.2437e-08
8.44763e-06
-5.16827e-08
8.45247e-06
-5.05014e-08
8.45701e-06
-4.90097e-08
8.46124e-06
-4.73166e-08
8.46518e-06
-4.55188e-08
8.46884e-06
-4.36872e-08
8.47226e-06
-4.18663e-08
8.47544e-06
-4.00849e-08
8.47843e-06
-3.83675e-08
-3.67238e-08
8.48128e-06
7.31365e-06
-2.06002e-09
7.32071e-06
-3.23945e-08
7.32652e-06
-4.43786e-08
7.33133e-06
-4.91902e-08
7.33672e-06
-5.38777e-08
7.34239e-06
-5.70329e-08
7.34793e-06
-5.80584e-08
7.35325e-06
-5.77562e-08
7.35832e-06
-5.67529e-08
7.3631e-06
-5.5281e-08
7.36757e-06
-5.34741e-08
7.37171e-06
-5.14625e-08
7.37555e-06
-4.93593e-08
7.3791e-06
-4.724e-08
7.38239e-06
-4.51545e-08
7.38544e-06
-4.31326e-08
7.38826e-06
-4.11849e-08
-3.92606e-08
7.39079e-06
6.36047e-06
7.53674e-09
6.3703e-06
-4.22259e-08
6.37819e-06
-5.22679e-08
6.38526e-06
-5.62597e-08
6.39239e-06
-6.10057e-08
6.39901e-06
-6.36538e-08
6.405e-06
-6.40545e-08
6.41056e-06
-6.33119e-08
6.41577e-06
-6.19611e-08
6.42062e-06
-6.0137e-08
6.42511e-06
-5.79654e-08
6.42924e-06
-5.55878e-08
6.43301e-06
-5.31325e-08
6.43645e-06
-5.06765e-08
6.43957e-06
-4.82777e-08
6.44242e-06
-4.59772e-08
6.44504e-06
-4.38064e-08
-4.17925e-08
6.44757e-06
5.53917e-06
1.38306e-08
5.54752e-06
-5.05789e-08
5.55587e-06
-6.06148e-08
5.56613e-06
-6.65175e-08
5.57733e-06
-7.22108e-08
5.58783e-06
-7.4155e-08
5.59705e-06
-7.32773e-08
5.60502e-06
-7.12761e-08
5.61179e-06
-6.87368e-08
5.61746e-06
-6.57996e-08
5.62208e-06
-6.2588e-08
5.62575e-06
-5.92571e-08
5.62856e-06
-5.59422e-08
5.6306e-06
-5.27179e-08
5.63196e-06
-4.96357e-08
5.63275e-06
-4.67647e-08
5.63305e-06
-4.41151e-08
-4.17795e-08
5.63304e-06
4.87157e-06
-3.01344e-08
4.88648e-06
-6.54848e-08
4.89722e-06
-7.13578e-08
4.906e-06
-7.52956e-08
4.91305e-06
-7.92591e-08
4.91733e-06
-7.84384e-08
4.91816e-06
-7.41138e-08
4.91544e-06
-6.85475e-08
4.90945e-06
-6.27559e-08
4.90074e-06
-5.70804e-08
4.88984e-06
-5.16915e-08
4.87727e-06
-4.66888e-08
4.86348e-06
-4.21536e-08
4.84884e-06
-3.80783e-08
4.83366e-06
-3.4449e-08
4.81818e-06
-3.1289e-08
4.80268e-06
-2.86135e-08
-2.69181e-08
4.78782e-06
4.17254e-06
4.10706e-06
4.0357e-06
3.9604e-06
3.88114e-06
3.80271e-06
3.72859e-06
3.66004e-06
3.59729e-06
3.54021e-06
3.48852e-06
3.44183e-06
3.39967e-06
3.3616e-06
3.32715e-06
3.29586e-06
3.26724e-06
3.24033e-06
5.94682e-09
-5.94971e-09
1.78919e-08
-1.19491e-08
3.16948e-08
-1.38072e-08
4.49901e-08
-1.32986e-08
5.64232e-08
-1.1437e-08
6.53359e-08
-8.91584e-09
7.15111e-08
-6.17926e-09
7.4989e-08
-3.48119e-09
7.59467e-08
-9.62001e-10
7.4676e-08
1.2674e-09
7.15568e-08
3.11456e-09
6.69789e-08
4.57438e-09
6.12492e-08
5.72478e-09
5.45743e-08
6.67114e-09
4.70486e-08
7.52025e-09
3.86819e-08
8.36256e-09
2.94157e-08
9.26028e-09
1.91619e-08
1.02493e-08
7.82574e-09
1.13297e-08
-4.71124e-09
1.25324e-08
-1.86795e-08
1.39619e-08
-3.427e-08
1.55864e-08
-5.16217e-08
1.73458e-08
-7.08884e-08
1.92629e-08
-9.22271e-08
2.13328e-08
-1.15766e-07
2.35344e-08
-1.41607e-07
2.58353e-08
-1.69806e-07
2.81946e-08
-2.00376e-07
3.05639e-08
-2.33269e-07
3.28874e-08
-2.68384e-07
3.51091e-08
-3.05575e-07
3.71865e-08
-3.4467e-07
3.90888e-08
-3.85468e-07
4.07933e-08
-4.27757e-07
4.22843e-08
-4.71312e-07
4.35504e-08
-5.15906e-07
4.45898e-08
-5.6132e-07
4.54095e-08
-6.07346e-07
4.60223e-08
-6.53795e-07
4.6445e-08
-7.00496e-07
4.66972e-08
-7.47299e-07
4.68001e-08
-7.94077e-07
4.67753e-08
-8.40724e-07
4.66439e-08
-8.87153e-07
4.64265e-08
-9.33301e-07
4.61455e-08
-9.79134e-07
4.58304e-08
-1.02465e-06
4.55171e-08
-1.06988e-06
4.52236e-08
-1.11483e-06
4.49447e-08
-1.15951e-06
4.46773e-08
-1.20393e-06
4.44192e-08
-1.2481e-06
4.41687e-08
-1.29203e-06
4.39242e-08
-1.33572e-06
4.36838e-08
-1.37917e-06
4.34455e-08
-1.42238e-06
4.32071e-08
-1.46535e-06
4.29658e-08
-1.50807e-06
4.27193e-08
-1.55054e-06
4.24644e-08
-1.59274e-06
4.21983e-08
-1.63467e-06
4.19181e-08
-1.67629e-06
4.16207e-08
-1.7176e-06
4.13031e-08
-1.75856e-06
4.09627e-08
-1.79916e-06
4.05966e-08
-1.83937e-06
4.02024e-08
-1.87915e-06
3.97774e-08
-1.91847e-06
3.93197e-08
-1.9573e-06
3.88268e-08
-1.9956e-06
3.82973e-08
-2.03334e-06
3.7729e-08
-2.07046e-06
3.71206e-08
-2.10693e-06
3.64706e-08
-2.14271e-06
3.5778e-08
-2.17776e-06
3.50417e-08
-2.21202e-06
3.42612e-08
-2.24546e-06
3.34356e-08
-2.27803e-06
3.25648e-08
-2.30969e-06
3.16483e-08
-2.34038e-06
3.06862e-08
-2.37006e-06
2.96783e-08
-2.39869e-06
2.86251e-08
-2.42622e-06
2.75265e-08
-2.4526e-06
2.63833e-08
-2.4778e-06
2.51955e-08
-2.50177e-06
2.39642e-08
-2.52446e-06
2.26897e-08
-2.54583e-06
2.13724e-08
-2.56584e-06
2.00127e-08
-2.58445e-06
1.86098e-08
-2.60162e-06
1.71635e-08
-2.61729e-06
1.56723e-08
-2.63143e-06
1.4134e-08
-2.64397e-06
1.25444e-08
-2.65487e-06
1.08985e-08
-2.66407e-06
9.18927e-09
-2.67148e-06
7.40659e-09
-2.67702e-06
5.5337e-09
-2.68058e-06
3.55369e-09
-2.68207e-06
1.48746e-09
-2.68153e-06
-5.43054e-10
-2.67917e-06
-2.37418e-09
-2.67513e-06
-4.04836e-09
-2.66945e-06
-5.69197e-09
-2.66213e-06
-7.32971e-09
-2.65317e-06
-8.97127e-09
-2.64256e-06
-1.06184e-08
-2.6303e-06
-1.22695e-08
-2.61638e-06
-1.39239e-08
-2.60081e-06
-1.55789e-08
-2.58358e-06
-1.72333e-08
-2.5647e-06
-1.88842e-08
-2.54417e-06
-2.05304e-08
-2.522e-06
-2.2169e-08
-2.49821e-06
-2.37988e-08
-2.47279e-06
-2.54167e-08
-2.44577e-06
-2.70216e-08
-2.41716e-06
-2.86105e-08
-2.38698e-06
-3.01825e-08
-2.35524e-06
-3.1735e-08
-2.32198e-06
-3.32666e-08
-2.28721e-06
-3.47738e-08
-2.25096e-06
-3.62554e-08
-2.21325e-06
-3.77076e-08
-2.17413e-06
-3.91295e-08
-2.13361e-06
-4.05182e-08
-2.09173e-06
-4.1873e-08
-2.04853e-06
-4.31917e-08
-2.00405e-06
-4.44745e-08
-1.95832e-06
-4.57194e-08
-1.91138e-06
-4.69258e-08
-1.86328e-06
-4.80913e-08
-1.81405e-06
-4.92174e-08
-1.76373e-06
-5.02973e-08
-1.71239e-06
-5.13252e-08
-1.66006e-06
-5.2307e-08
-1.6068e-06
-5.32447e-08
-1.55265e-06
-5.41325e-08
-1.49767e-06
-5.4968e-08
-1.44191e-06
-5.57509e-08
-1.38541e-06
-5.64809e-08
-1.32825e-06
-5.71577e-08
-1.27046e-06
-5.77805e-08
-1.21211e-06
-5.83497e-08
-1.15324e-06
-5.88647e-08
-1.09392e-06
-5.93261e-08
-1.03419e-06
-5.97337e-08
-9.74103e-07
-6.00883e-08
-9.1372e-07
-6.03901e-08
-8.53088e-07
-6.06403e-08
-7.92259e-07
-6.08395e-08
-7.31283e-07
-6.09894e-08
-6.70207e-07
-6.10908e-08
-6.09078e-07
-6.11457e-08
-5.47941e-07
-6.11554e-08
-4.86839e-07
-6.11219e-08
-4.25814e-07
-6.10469e-08
-3.64904e-07
-6.09322e-08
-3.04149e-07
-6.07783e-08
-2.43586e-07
-6.05873e-08
-1.83254e-07
-6.03571e-08
-1.23184e-07
-6.00954e-08
-6.34e-08
-5.98103e-08
-4.00403e-09
-5.94215e-08
5.50418e-08
-5.9071e-08
1.13737e-07
-5.87191e-08
1.71953e-07
-5.82392e-08
2.29691e-07
-5.77598e-08
2.86954e-07
-5.72843e-08
3.43732e-07
-5.67975e-08
3.99986e-07
-5.6274e-08
4.5564e-07
-5.56724e-08
5.10544e-07
-5.49215e-08
5.64414e-07
-5.38867e-08
6.16682e-07
-5.22825e-08
6.66148e-07
-4.94798e-08
7.09836e-07
-4.37008e-08
7.40782e-07
-3.09555e-08
1.12143e-08
7.29558e-07
1.14632e-08
-1.74159e-08
2.33435e-08
-2.38333e-08
3.19202e-08
-2.23867e-08
3.73835e-08
-1.87641e-08
4.03093e-08
-1.43649e-08
4.10814e-08
-9.68975e-09
3.99263e-08
-5.02623e-09
3.70033e-08
-5.59998e-10
3.24422e-08
3.59684e-09
2.63239e-08
7.38386e-09
1.86541e-08
1.0782e-08
9.41066e-09
1.38159e-08
-1.42502e-09
1.6558e-08
-1.38712e-08
1.91152e-08
-2.79579e-08
2.16045e-08
-4.37298e-08
2.41324e-08
-6.12563e-08
2.67844e-08
-8.06263e-08
2.96172e-08
-1.01959e-07
3.26598e-08
-1.25357e-07
3.59287e-08
-1.50835e-07
3.94372e-08
-1.78426e-07
4.3176e-08
-2.08199e-07
4.71167e-08
-2.40157e-07
5.12187e-08
-2.74251e-07
5.54245e-08
-3.1038e-07
5.96612e-08
-3.48393e-07
6.38466e-08
-3.88098e-07
6.78967e-08
-4.29272e-07
7.17359e-08
-4.71692e-07
7.53045e-08
-5.15138e-07
7.8552e-08
-5.59389e-07
8.14356e-08
-6.04231e-07
8.39276e-08
-6.49457e-07
8.60168e-08
-6.94881e-07
8.77056e-08
-7.40337e-07
8.90047e-08
-7.85686e-07
8.99365e-08
-8.30814e-07
9.05351e-08
-8.75633e-07
9.08392e-08
-9.2008e-07
9.08893e-08
-9.64111e-07
9.07264e-08
-1.0077e-06
9.039e-08
-1.05085e-06
8.9917e-08
-1.09355e-06
8.93415e-08
-1.13582e-06
8.86947e-08
-1.17768e-06
8.80066e-08
-1.21915e-06
8.73056e-08
-1.26025e-06
8.66144e-08
-1.30097e-06
8.59436e-08
-1.34133e-06
8.52942e-08
-1.38132e-06
8.46654e-08
-1.42095e-06
8.40549e-08
-1.46025e-06
8.34597e-08
-1.4992e-06
8.28759e-08
-1.53782e-06
8.22991e-08
-1.5761e-06
8.17245e-08
-1.61404e-06
8.11468e-08
-1.65164e-06
8.05609e-08
-1.68888e-06
7.99612e-08
-1.72577e-06
7.93421e-08
-1.76227e-06
7.86983e-08
-1.79838e-06
7.80241e-08
-1.83407e-06
7.73144e-08
-1.86934e-06
7.65639e-08
-1.90414e-06
7.57678e-08
-1.93847e-06
7.49215e-08
-1.97229e-06
7.40207e-08
-2.00558e-06
7.30614e-08
-2.0383e-06
7.20398e-08
-2.07043e-06
7.09525e-08
-2.10193e-06
6.97966e-08
-2.13277e-06
6.85691e-08
-2.16292e-06
6.72679e-08
-2.19234e-06
6.58906e-08
-2.221e-06
6.44356e-08
-2.24887e-06
6.29015e-08
-2.27589e-06
6.12873e-08
-2.30205e-06
5.9592e-08
-2.32731e-06
5.78153e-08
-2.35162e-06
5.59567e-08
-2.37495e-06
5.40164e-08
-2.39727e-06
5.19945e-08
-2.41854e-06
4.98917e-08
-2.43872e-06
4.77082e-08
-2.45779e-06
4.54452e-08
-2.4757e-06
4.31036e-08
-2.49242e-06
4.06847e-08
-2.50792e-06
3.81895e-08
-2.52217e-06
3.56192e-08
-2.53513e-06
3.29746e-08
-2.54677e-06
3.02566e-08
-2.55708e-06
2.74658e-08
-2.56601e-06
2.46032e-08
-2.57354e-06
2.16691e-08
-2.57967e-06
1.86643e-08
-2.58436e-06
1.55899e-08
-2.58762e-06
1.24479e-08
-2.58946e-06
9.24187e-09
-2.58991e-06
5.98047e-09
-2.58905e-06
2.6893e-09
-2.58698e-06
-5.84455e-10
-2.58372e-06
-3.80732e-09
-2.5791e-06
-7.00573e-09
-2.57294e-06
-1.02156e-08
-2.5652e-06
-1.34401e-08
-2.55586e-06
-1.66789e-08
-2.5449e-06
-1.99324e-08
-2.53233e-06
-2.31985e-08
-2.51813e-06
-2.64741e-08
-2.5023e-06
-2.97557e-08
-2.48485e-06
-3.30392e-08
-2.46576e-06
-3.63208e-08
-2.44505e-06
-3.95961e-08
-2.42272e-06
-4.28614e-08
-2.39878e-06
-4.61121e-08
-2.37324e-06
-4.93445e-08
-2.3461e-06
-5.25541e-08
-2.31738e-06
-5.5737e-08
-2.28711e-06
-5.88891e-08
-2.25528e-06
-6.20068e-08
-2.22193e-06
-6.50859e-08
-2.18708e-06
-6.81226e-08
-2.15074e-06
-7.1112e-08
-2.11295e-06
-7.40495e-08
-2.07373e-06
-7.69304e-08
-2.03311e-06
-7.97509e-08
-1.99112e-06
-8.25065e-08
-1.9478e-06
-8.51942e-08
-1.90317e-06
-8.78104e-08
-1.85729e-06
-9.03533e-08
-1.81018e-06
-9.28204e-08
-1.76189e-06
-9.52103e-08
-1.71246e-06
-9.75209e-08
-1.66191e-06
-9.97505e-08
-1.61031e-06
-1.01888e-07
-1.5577e-06
-1.03926e-07
-1.50413e-06
-1.05871e-07
-1.44964e-06
-1.07725e-07
-1.39428e-06
-1.0948e-07
-1.33811e-06
-1.11131e-07
-1.28118e-06
-1.12677e-07
-1.22354e-06
-1.14117e-07
-1.16524e-06
-1.1545e-07
-1.10634e-06
-1.16676e-07
-1.04689e-06
-1.17794e-07
-9.86953e-07
-1.18805e-07
-9.26572e-07
-1.19707e-07
-8.65806e-07
-1.20502e-07
-8.04707e-07
-1.2119e-07
-7.43329e-07
-1.21773e-07
-6.81722e-07
-1.22251e-07
-6.19939e-07
-1.22629e-07
-5.5803e-07
-1.22906e-07
-4.96041e-07
-1.23087e-07
-4.34021e-07
-1.23175e-07
-3.72015e-07
-1.23172e-07
-3.10064e-07
-1.23083e-07
-2.48212e-07
-1.22911e-07
-1.86496e-07
-1.2266e-07
-1.24954e-07
-1.22332e-07
-6.36212e-08
-1.21933e-07
-2.52684e-09
-1.21464e-07
5.83073e-08
-1.20942e-07
1.18848e-07
-1.20364e-07
1.79116e-07
-1.19701e-07
2.39003e-07
-1.1897e-07
2.98424e-07
-1.18152e-07
3.57434e-07
-1.17261e-07
4.16025e-07
-1.16361e-07
4.74182e-07
-1.15452e-07
5.31882e-07
-1.14508e-07
5.89079e-07
-1.13482e-07
6.45691e-07
-1.12294e-07
7.01567e-07
-1.10807e-07
7.5643e-07
-1.08759e-07
8.09787e-07
-1.05648e-07
8.60644e-07
-1.00345e-07
9.07463e-07
-9.05265e-08
9.46786e-07
-7.02843e-08
-2.16385e-08
9.79633e-07
9.19531e-09
-2.66137e-08
1.49541e-08
-2.9595e-08
1.69537e-08
-2.43884e-08
1.62155e-08
-1.80273e-08
1.34125e-08
-1.15633e-08
8.9334e-09
-5.21187e-09
2.97586e-09
9.29956e-10
-4.37891e-09
6.79362e-09
-1.31195e-08
1.23361e-08
-2.32808e-08
1.7544e-08
-3.49321e-08
2.24319e-08
-4.8161e-08
2.70436e-08
-6.30567e-08
3.14523e-08
-7.96953e-08
3.57527e-08
-9.81381e-08
4.00459e-08
-1.18431e-07
4.44244e-08
-1.4061e-07
4.89612e-08
-1.64696e-07
5.37025e-08
-1.90704e-07
5.86666e-08
-2.18622e-07
6.3845e-08
-2.48395e-07
6.92091e-08
-2.79933e-07
7.47128e-08
-3.1311e-07
8.02929e-08
-3.47765e-07
8.58726e-08
-3.83708e-07
9.13654e-08
-4.20729e-07
9.66809e-08
-4.58616e-07
1.01732e-07
-4.97164e-07
1.06443e-07
-5.36181e-07
1.10751e-07
-5.75488e-07
1.1461e-07
-6.14924e-07
1.17987e-07
-6.54356e-07
1.20866e-07
-6.93675e-07
1.23245e-07
-7.32791e-07
1.25132e-07
-7.71639e-07
1.26552e-07
-8.10181e-07
1.27546e-07
-8.48404e-07
1.28158e-07
-8.86306e-07
1.28435e-07
-9.23892e-07
1.28424e-07
-9.61176e-07
1.28172e-07
-9.98175e-07
1.27724e-07
-1.03491e-06
1.27121e-07
-1.07139e-06
1.26403e-07
-1.10766e-06
1.25602e-07
-1.14371e-06
1.24748e-07
-1.17957e-06
1.23867e-07
-1.21525e-06
1.22979e-07
-1.25073e-06
1.221e-07
-1.28603e-06
1.21237e-07
-1.32113e-06
1.20393e-07
-1.35603e-06
1.19568e-07
-1.39074e-06
1.1876e-07
-1.42524e-06
1.17964e-07
-1.45954e-06
1.17175e-07
-1.49363e-06
1.16388e-07
-1.52751e-06
1.15595e-07
-1.56115e-06
1.14791e-07
-1.59456e-06
1.13967e-07
-1.62772e-06
1.13116e-07
-1.66061e-06
1.12232e-07
-1.69322e-06
1.11306e-07
-1.72553e-06
1.10331e-07
-1.75751e-06
1.093e-07
-1.78916e-06
1.08207e-07
-1.82044e-06
1.07044e-07
-1.85132e-06
1.05806e-07
-1.88179e-06
1.04487e-07
-1.91181e-06
1.03082e-07
-1.94136e-06
1.01585e-07
-1.9704e-06
9.99914e-08
-1.9989e-06
9.82979e-08
-2.02684e-06
9.65005e-08
-2.05416e-06
9.45957e-08
-2.08086e-06
9.25809e-08
-2.10688e-06
9.04535e-08
-2.13219e-06
8.82116e-08
-2.15676e-06
8.58539e-08
-2.18054e-06
8.3379e-08
-2.20352e-06
8.07863e-08
-2.22564e-06
7.80755e-08
-2.24687e-06
7.52466e-08
-2.26718e-06
7.22999e-08
-2.28652e-06
6.92362e-08
-2.30487e-06
6.60564e-08
-2.32219e-06
6.27619e-08
-2.33844e-06
5.93543e-08
-2.3536e-06
5.58355e-08
-2.36761e-06
5.22075e-08
-2.38047e-06
4.84725e-08
-2.39212e-06
4.46327e-08
-2.40256e-06
4.06905e-08
-2.41174e-06
3.66486e-08
-2.41965e-06
3.25102e-08
-2.42626e-06
2.8279e-08
-2.43156e-06
2.39596e-08
-2.43553e-06
1.95579e-08
-2.43816e-06
1.50816e-08
-2.43947e-06
1.05403e-08
-2.43944e-06
5.94842e-09
-2.43808e-06
1.32662e-09
-2.43536e-06
-3.30376e-09
-2.43123e-06
-7.94182e-09
-2.42563e-06
-1.26117e-08
-2.41852e-06
-1.73268e-08
-2.40989e-06
-2.20805e-08
-2.39971e-06
-2.68662e-08
-2.38797e-06
-3.16786e-08
-2.37466e-06
-3.6512e-08
-2.35977e-06
-4.13607e-08
-2.34331e-06
-4.62187e-08
-2.32528e-06
-5.10802e-08
-2.30566e-06
-5.59389e-08
-2.28447e-06
-6.07889e-08
-2.26171e-06
-6.56239e-08
-2.23738e-06
-7.04379e-08
-2.2115e-06
-7.52246e-08
-2.18408e-06
-7.9978e-08
-2.15512e-06
-8.4692e-08
-2.12465e-06
-8.93606e-08
-2.09268e-06
-9.39781e-08
-2.05923e-06
-9.85388e-08
-2.02432e-06
-1.03036e-07
-1.98797e-06
-1.07464e-07
-1.9502e-06
-1.11815e-07
-1.91105e-06
-1.16084e-07
-1.87054e-06
-1.20263e-07
-1.8287e-06
-1.24347e-07
-1.78556e-06
-1.2833e-07
-1.74117e-06
-1.32207e-07
-1.69554e-06
-1.35974e-07
-1.64873e-06
-1.39628e-07
-1.60077e-06
-1.43167e-07
-1.55169e-06
-1.46589e-07
-1.50155e-06
-1.49888e-07
-1.45038e-06
-1.53052e-07
-1.39823e-06
-1.56072e-07
-1.34514e-06
-1.58952e-07
-1.29116e-06
-1.61694e-07
-1.23635e-06
-1.64288e-07
-1.18075e-06
-1.66729e-07
-1.12441e-06
-1.69013e-07
-1.06738e-06
-1.71139e-07
-1.00972e-06
-1.73107e-07
-9.51481e-07
-1.74914e-07
-8.92714e-07
-1.7656e-07
-8.33474e-07
-1.78044e-07
-7.73812e-07
-1.79368e-07
-7.13783e-07
-1.80531e-07
-6.53438e-07
-1.81535e-07
-5.9283e-07
-1.82382e-07
-5.3201e-07
-1.83073e-07
-4.71029e-07
-1.83613e-07
-4.09934e-07
-1.84003e-07
-3.48774e-07
-1.8425e-07
-2.87594e-07
-1.84357e-07
-2.26439e-07
-1.84331e-07
-1.65351e-07
-1.84175e-07
-1.04369e-07
-1.83897e-07
-4.35298e-08
-1.83503e-07
1.71339e-08
-1.83e-07
7.7587e-08
-1.8239e-07
1.37798e-07
-1.81679e-07
1.97734e-07
-1.80881e-07
2.57369e-07
-1.80002e-07
3.16704e-07
-1.7904e-07
3.75711e-07
-1.77981e-07
4.34367e-07
-1.76811e-07
4.92665e-07
-1.75563e-07
5.50584e-07
-1.74283e-07
6.08098e-07
-1.72969e-07
6.65176e-07
-1.7159e-07
7.2177e-07
-1.70079e-07
7.77799e-07
-1.68325e-07
8.33122e-07
-1.66133e-07
8.87502e-07
-1.63143e-07
9.40543e-07
-1.58692e-07
9.91619e-07
-1.51424e-07
1.03989e-06
-1.38797e-07
1.08482e-06
-1.15221e-07
-6.77548e-08
1.13094e-06
3.57513e-09
-3.0191e-08
2.40806e-09
-2.84303e-08
-1.37538e-09
-2.06066e-08
-6.92237e-09
-1.24815e-08
-1.38907e-08
-4.59612e-09
-2.2116e-08
3.01255e-09
-3.15353e-08
1.03483e-08
-4.21519e-08
1.74093e-08
-5.40134e-08
2.41966e-08
-6.71937e-08
3.07235e-08
-8.17822e-08
3.70193e-08
-9.7871e-08
4.31316e-08
-1.15544e-07
4.91241e-08
-1.34863e-07
5.50706e-08
-1.55863e-07
6.10451e-08
-1.7855e-07
6.71103e-08
-2.02899e-07
7.33092e-08
-2.28856e-07
7.96594e-08
-2.56342e-07
8.61513e-08
-2.85248e-07
9.27494e-08
-3.15436e-07
9.93963e-08
-3.46744e-07
1.0602e-07
-3.78992e-07
1.12539e-07
-4.11988e-07
1.18868e-07
-4.45542e-07
1.24919e-07
-4.79475e-07
1.30613e-07
-5.13626e-07
1.35883e-07
-5.47857e-07
1.40673e-07
-5.82054e-07
1.44946e-07
-6.16124e-07
1.48679e-07
-6.5e-07
1.51861e-07
-6.83635e-07
1.545e-07
-7.17006e-07
1.56614e-07
-7.5011e-07
1.58235e-07
-7.82963e-07
1.59403e-07
-8.15585e-07
1.60166e-07
-8.48001e-07
1.60573e-07
-8.80239e-07
1.60672e-07
-9.12325e-07
1.6051e-07
-9.44287e-07
1.60133e-07
-9.76147e-07
1.59582e-07
-1.00792e-06
1.58897e-07
-1.03963e-06
1.58112e-07
-1.07129e-06
1.57255e-07
-1.10289e-06
1.56352e-07
-1.13445e-06
1.55423e-07
-1.16595e-06
1.54483e-07
-1.1974e-06
1.53546e-07
-1.22878e-06
1.52617e-07
-1.26009e-06
1.51699e-07
-1.29131e-06
1.50791e-07
-1.32244e-06
1.49891e-07
-1.35347e-06
1.48993e-07
-1.38439e-06
1.48093e-07
-1.41519e-06
1.47183e-07
-1.44585e-06
1.46256e-07
-1.47637e-06
1.45303e-07
-1.50672e-06
1.44316e-07
-1.53689e-06
1.43286e-07
-1.56686e-06
1.42205e-07
-1.59662e-06
1.41063e-07
-1.62614e-06
1.39852e-07
-1.65541e-06
1.38563e-07
-1.68439e-06
1.37188e-07
-1.71307e-06
1.35719e-07
-1.74141e-06
1.34148e-07
-1.76939e-06
1.32469e-07
-1.79699e-06
1.30675e-07
-1.82417e-06
1.2876e-07
-1.85089e-06
1.26717e-07
-1.87714e-06
1.24543e-07
-1.90287e-06
1.22231e-07
-1.92805e-06
1.19779e-07
-1.95266e-06
1.17182e-07
-1.97664e-06
1.14438e-07
-1.99997e-06
1.11543e-07
-2.02262e-06
1.08497e-07
-2.04454e-06
1.05298e-07
-2.0657e-06
1.01945e-07
-2.08606e-06
9.8437e-08
-2.10559e-06
9.47749e-08
-2.12425e-06
9.09589e-08
-2.14201e-06
8.69901e-08
-2.15882e-06
8.28698e-08
-2.17466e-06
7.86e-08
-2.18949e-06
7.4183e-08
-2.20328e-06
6.96213e-08
-2.21599e-06
6.4918e-08
-2.22759e-06
6.00763e-08
-2.23806e-06
5.50999e-08
-2.24736e-06
4.99928e-08
-2.25547e-06
4.47594e-08
-2.26237e-06
3.9405e-08
-2.26803e-06
3.39355e-08
-2.27243e-06
2.83579e-08
-2.27555e-06
2.26804e-08
-2.27738e-06
1.69124e-08
-2.27791e-06
1.1065e-08
-2.27712e-06
5.15066e-09
-2.27498e-06
-8.16837e-10
-2.27145e-06
-6.82832e-09
-2.26651e-06
-1.28868e-08
-2.26013e-06
-1.9004e-08
-2.25227e-06
-2.51827e-08
-2.24294e-06
-3.14161e-08
-2.23212e-06
-3.76949e-08
-2.21979e-06
-4.40113e-08
-2.20595e-06
-5.03565e-08
-2.19059e-06
-5.67231e-08