/*--------------------------------*- C++ -*----------------------------------*\
| =========                 |                                                 |
| \\      /  F ield         | OpenFOAM: The Open Source CFD Toolbox           |
|  \\    /   O peration     | Version:  v2006                                 |
|   \\  /    A nd           | Website:  www.openfoam.com                      |
|    \\/     M anipulation  |                                                 |
\*---------------------------------------------------------------------------*/
FoamFile
{
    version     2.0;
    format      ascii;
    class       volVectorField;
    location    "280";
    object      U;
}
// * * * * * * * * * * * * * * * * * * * * * * * * * * * * * * * * * * * * * //

dimensions      [0 1 -1 0 0 0 0];


internalField   nonuniform List<vector> 
12225
(
(9.84118 -0.95637 0)
(9.59253 -0.887947 0)
(9.31754 -0.59449 0)
(9.0147 -0.370009 0)
(8.72576 -0.225974 0)
(8.46711 -0.137865 0)
(8.23999 -0.0844808 0)
(8.04168 -0.0516235 0)
(7.8697 -0.0312269 0)
(7.72066 -0.0185927 0)
(7.59151 -0.0106512 0)
(7.47918 -0.00571222 0)
(7.38145 -0.00270966 0)
(7.29637 -0.000996967 0)
(7.22224 -0.000111963 0)
(7.16007 -0.000480568 0)
(7.10026 0.0026593 0)
(7.072 -0.0178328 0)
(10.0722 0.255857 0)
(10.1867 0.418358 0)
(10.2285 0.384144 0)
(10.2296 0.310412 0)
(10.2114 0.245689 0)
(10.1794 0.195444 0)
(10.1334 0.157687 0)
(10.0759 0.12968 0)
(10.0105 0.108833 0)
(9.94085 0.0931017 0)
(9.86924 0.0809292 0)
(9.79742 0.0713187 0)
(9.72648 0.0635243 0)
(9.65754 0.057072 0)
(9.59101 0.0513213 0)
(9.52782 0.0467247 0)
(9.46859 0.040258 0)
(9.41524 0.0403881 0)
(10.0032 0.0599587 0)
(10.0309 0.0482996 0)
(10.0614 0.0100096 0)
(10.0898 9.54996e-06 0)
(10.1151 0.00817757 0)
(10.1376 0.0194351 0)
(10.1547 0.0290262 0)
(10.1657 0.0365124 0)
(10.1715 0.0420734 0)
(10.173 0.0459294 0)
(10.1711 0.0483943 0)
(10.1662 0.0497637 0)
(10.1591 0.0502746 0)
(10.1502 0.0500779 0)
(10.1401 0.0492102 0)
(10.1291 0.0476829 0)
(10.1182 0.0452224 0)
(10.1062 0.040463 0)
(9.99715 0.00991903 0)
(10.009 0.0260987 0)
(10.0342 0.0383113 0)
(10.0554 0.0534007 0)
(10.0721 0.0649318 0)
(10.0875 0.0702737 0)
(10.1015 0.0714267 0)
(10.1134 0.0706719 0)
(10.1236 0.0690941 0)
(10.1326 0.0671201 0)
(10.1404 0.0649495 0)
(10.1472 0.0627053 0)
(10.1532 0.0604082 0)
(10.1585 0.0580386 0)
(10.1631 0.0554619 0)
(10.1674 0.0525397 0)
(10.1713 0.0487963 0)
(10.1742 0.0431227 0)
(9.99907 0.00681135 0)
(10.0082 0.0343081 0)
(10.0279 0.0483618 0)
(10.0436 0.054906 0)
(10.0558 0.0583743 0)
(10.0678 0.0595562 0)
(10.0793 0.0593259 0)
(10.0897 0.0585835 0)
(10.0991 0.0576903 0)
(10.1077 0.0566806 0)
(10.1157 0.0555467 0)
(10.1232 0.0542837 0)
(10.1302 0.0528687 0)
(10.1369 0.0512457 0)
(10.1434 0.0492975 0)
(10.1495 0.046869 0)
(10.1553 0.0436402 0)
(10.1605 0.0393011 0)
(10.0002 0.00924546 0)
(10.008 0.0334149 0)
(10.0236 0.0440844 0)
(10.0369 0.0484139 0)
(10.0478 0.0518758 0)
(10.0585 0.0542738 0)
(10.069 0.0553058 0)
(10.0785 0.0554691 0)
(10.0871 0.0551565 0)
(10.0951 0.0544987 0)
(10.1026 0.0535501 0)
(10.1097 0.0523532 0)
(10.1165 0.0509196 0)
(10.1231 0.0492204 0)
(10.1294 0.0471718 0)
(10.1354 0.0446565 0)
(10.1411 0.0415067 0)
(10.1462 0.0375994 0)
(10.0003 0.00912784 0)
(10.007 0.0287631 0)
(10.0201 0.0389033 0)
(10.0322 0.0440396 0)
(10.0425 0.048143 0)
(10.0525 0.0509466 0)
(10.0622 0.0521918 0)
(10.0711 0.0524267 0)
(10.0793 0.0521148 0)
(10.0869 0.0514314 0)
(10.094 0.0504463 0)
(10.1008 0.0492048 0)
(10.1073 0.0477228 0)
(10.1136 0.0459749 0)
(10.1196 0.0438984 0)
(10.1253 0.0414079 0)
(10.1306 0.0384143 0)
(10.1354 0.034878 0)
(10.0004 0.008147 0)
(10.006 0.0247164 0)
(10.0171 0.0348938 0)
(10.0283 0.0405424 0)
(10.0381 0.0446219 0)
(10.0475 0.0473367 0)
(10.0567 0.0486165 0)
(10.0652 0.0489328 0)
(10.073 0.0486983 0)
(10.0804 0.0480802 0)
(10.0873 0.0471467 0)
(10.0939 0.0459403 0)
(10.1002 0.0444796 0)
(10.1062 0.0427476 0)
(10.1119 0.0407039 0)
(10.1173 0.0382956 0)
(10.1223 0.0354854 0)
(10.1267 0.0322893 0)
(10.0004 0.00721214 0)
(10.0052 0.0215237 0)
(10.0146 0.0312789 0)
(10.0248 0.0369615 0)
(10.0341 0.0408608 0)
(10.0429 0.0434904 0)
(10.0516 0.0448548 0)
(10.0598 0.0452967 0)
(10.0675 0.0451643 0)
(10.0746 0.0446232 0)
(10.0814 0.0437468 0)
(10.0878 0.0425802 0)
(10.0939 0.0411479 0)
(10.0997 0.0394458 0)
(10.1052 0.0374543 0)
(10.1103 0.0351491 0)
(10.115 0.0325267 0)
(10.1192 0.0296325 0)
(10.0004 0.00637368 0)
(10.0045 0.0187508 0)
(10.0125 0.0277576 0)
(10.0216 0.0333005 0)
(10.0303 0.0370496 0)
(10.0387 0.0396038 0)
(10.0469 0.0410215 0)
(10.0548 0.0415537 0)
(10.0622 0.0414968 0)
(10.0692 0.0410166 0)
(10.0758 0.040191 0)
(10.082 0.0390677 0)
(10.088 0.0376765 0)
(10.0936 0.0360251 0)
(10.0989 0.0341112 0)
(10.1038 0.0319326 0)
(10.1083 0.0295051 0)
(10.1123 0.0268871 0)
(10.0004 0.00558434 0)
(10.0039 0.0162542 0)
(10.0107 0.0243958 0)
(10.0189 0.0296908 0)
(10.0269 0.0332694 0)
(10.0348 0.0357063 0)
(10.0426 0.0371152 0)
(10.0501 0.0376923 0)
(10.0573 0.0376857 0)
(10.064 0.0372531 0)
(10.0704 0.036475 0)
(10.0765 0.0354005 0)
(10.0823 0.0340632 0)
(10.0877 0.0324811 0)
(10.0928 0.0306647 0)
(10.0975 0.0286275 0)
(10.1018 0.0263956 0)
(10.1057 0.0240314 0)
(10.0003 0.00488002 0)
(10.0034 0.0141546 0)
(10.0093 0.0214717 0)
(10.0167 0.0264443 0)
(10.0242 0.0298219 0)
(10.0316 0.0321142 0)
(10.039 0.0334718 0)
(10.0461 0.0340574 0)
(10.053 0.0340771 0)
(10.0595 0.0336771 0)
(10.0657 0.0329379 0)
(10.0716 0.0319097 0)
(10.0772 0.0306293 0)
(10.0825 0.0291218 0)
(10.0874 0.0274068 0)
(10.0919 0.0255064 0)
(10.0961 0.0234512 0)
(10.0999 0.0213034 0)
(10.0003 0.00421948 0)
(10.003 0.0122296 0)
(10.0082 0.0187098 0)
(10.0148 0.0232782 0)
(10.0217 0.0264157 0)
(10.0287 0.0285403 0)
(10.0357 0.0298165 0)
(10.0425 0.0303846 0)
(10.0491 0.0304146 0)
(10.0554 0.0300378 0)
(10.0614 0.0293331 0)
(10.0671 0.0283518 0)
(10.0725 0.0271328 0)
(10.0775 0.0257059 0)
(10.0823 0.0240968 0)
(10.0866 0.0223331 0)
(10.0907 0.0204463 0)
(10.0943 0.0184976 0)
(10.0003 0.00353135 0)
(10.0026 0.0102229 0)
(10.0071 0.0157466 0)
(10.0129 0.0197725 0)
(10.0193 0.0225755 0)
(10.0258 0.024468 0)
(10.0323 0.02561 0)
(10.0387 0.0261225 0)
(10.045 0.0261401 0)
(10.051 0.0257755 0)
(10.0567 0.0251034 0)
(10.0622 0.0241747 0)
(10.0674 0.023029 0)
(10.0723 0.0216992 0)
(10.0768 0.0202147 0)
(10.081 0.0186059 0)
(10.0849 0.0169028 0)
(10.0884 0.0151631 0)
(10.0002 0.00281182 0)
(10.0022 0.00813071 0)
(10.006 0.0125924 0)
(10.0112 0.015935 0)
(10.0169 0.018291 0)
(10.0229 0.0198711 0)
(10.0289 0.0208139 0)
(10.035 0.0212201 0)
(10.0409 0.0211929 0)
(10.0466 0.0208233 0)
(10.0521 0.0201781 0)
(10.0573 0.0193056 0)
(10.0622 0.0182442 0)
(10.0669 0.0170271 0)
(10.0712 0.0156843 0)
(10.0752 0.014246 0)
(10.0789 0.0127391 0)
(10.0824 0.0112152 0)
(10.0002 0.00206123 0)
(10.0019 0.00595588 0)
(10.0052 0.00925781 0)
(10.0097 0.0117746 0)
(10.0148 0.013555 0)
(10.0202 0.0147254 0)
(10.0258 0.0153895 0)
(10.0314 0.0156258 0)
(10.037 0.0155091 0)
(10.0424 0.015108 0)
(10.0475 0.0144775 0)
(10.0525 0.0136596 0)
(10.0572 0.0126888 0)
(10.0616 0.0115954 0)
(10.0657 0.0104069 0)
(10.0696 0.00915016 0)
(10.0732 0.00784726 0)
(10.0765 0.00654261 0)
(10.0002 0.00127805 0)
(10.0016 0.00368671 0)
(10.0045 0.00572885 0)
(10.0084 0.00727819 0)
(10.013 0.00834436 0)
(10.018 0.00899214 0)
(10.0231 0.00928576 0)
(10.0283 0.00927748 0)
(10.0335 0.00901618 0)
(10.0386 0.00854787 0)
(10.0435 0.00791178 0)
(10.0482 0.00713982 0)
(10.0526 0.00625901 0)
(10.0568 0.00529339 0)
(10.0608 0.00426487 0)
(10.0645 0.00319432 0)
(10.0679 0.00209786 0)
(10.0712 0.00101155 0)
(10.0002 0.000446908 0)
(10.0014 0.00127257 0)
(10.004 0.00193328 0)
(10.0075 0.00236537 0)
(10.0117 0.00256797 0)
(10.0163 0.00256454 0)
(10.0211 0.00238126 0)
(10.026 0.00204188 0)
(10.0309 0.00157003 0)
(10.0357 0.000988558 0)
(10.0404 0.000317728 0)
(10.0448 -0.000424935 0)
(10.0491 -0.00122374 0)
(10.0531 -0.00206413 0)
(10.0569 -0.00293257 0)
(10.0605 -0.00381591 0)
(10.0639 -0.00470487 0)
(10.067 -0.00557226 0)
(10.0001 -0.000475121 0)
(10.0014 -0.00140932 0)
(10.0038 -0.00230646 0)
(10.0071 -0.00316452 0)
(10.0112 -0.0039798 0)
(10.0156 -0.00476303 0)
(10.0202 -0.00552824 0)
(10.025 -0.00628297 0)
(10.0297 -0.00702977 0)
(10.0343 -0.00777057 0)
(10.0389 -0.00850718 0)
(10.0432 -0.00924022 0)
(10.0473 -0.00996889 0)
(10.0513 -0.0106913 0)
(10.055 -0.0114049 0)
(10.0585 -0.0121061 0)
(10.0618 -0.0127936 0)
(10.0649 -0.01345 0)
(10.0002 -0.0013483 0)
(10.0014 -0.00395866 0)
(10.004 -0.00634958 0)
(10.0075 -0.00843709 0)
(10.0117 -0.0102089 0)
(10.0163 -0.0117193 0)
(10.021 -0.0130245 0)
(10.0259 -0.0141591 0)
(10.0306 -0.0151513 0)
(10.0354 -0.0160301 0)
(10.0399 -0.0168207 0)
(10.0443 -0.0175413 0)
(10.0484 -0.0182049 0)
(10.0524 -0.0188212 0)
(10.0561 -0.0193978 0)
(10.0596 -0.0199395 0)
(10.0629 -0.0204512 0)
(10.066 -0.0209238 0)
(10.0002 -0.00208842 0)
(10.0016 -0.0061544 0)
(10.0043 -0.00984866 0)
(10.0083 -0.0129436 0)
(10.0129 -0.0154465 0)
(10.0177 -0.017507 0)
(10.0227 -0.0192235 0)
(10.0278 -0.0206358 0)
(10.0328 -0.021789 0)
(10.0376 -0.0227407 0)
(10.0423 -0.0235401 0)
(10.0467 -0.0242216 0)
(10.051 -0.0248106 0)
(10.055 -0.0253269 0)
(10.0588 -0.025786 0)
(10.0623 -0.0261986 0)
(10.0656 -0.0265741 0)
(10.0688 -0.0269092 0)
(10.0002 -0.00277254 0)
(10.0017 -0.00828797 0)
(10.0049 -0.0133157 0)
(10.0094 -0.0173274 0)
(10.0145 -0.0204044 0)
(10.0198 -0.0228784 0)
(10.0251 -0.0249029 0)
(10.0305 -0.026518 0)
(10.0357 -0.0277845 0)
(10.0408 -0.0287805 0)
(10.0456 -0.0295683 0)
(10.0502 -0.0301929 0)
(10.0546 -0.0306908 0)
(10.0586 -0.0310923 0)
(10.0625 -0.0314211 0)
(10.0661 -0.031694 0)
(10.0695 -0.0319236 0)
(10.0726 -0.03211 0)
(10.0001 -0.00338135 0)
(10.0017 -0.0103971 0)
(10.0055 -0.0167677 0)
(10.0109 -0.0216084 0)
(10.0166 -0.0252294 0)
(10.0223 -0.0280862 0)
(10.028 -0.0303064 0)
(10.0337 -0.0319746 0)
(10.0393 -0.0332346 0)
(10.0445 -0.0342043 0)
(10.0496 -0.0349491 0)
(10.0543 -0.0355132 0)
(10.0588 -0.0359372 0)
(10.063 -0.0362563 0)
(10.0669 -0.036497 0)
(10.0706 -0.036678 0)
(10.074 -0.0368141 0)
(10.0772 -0.0369107 0)
(10.0001 -0.00387037 0)
(10.0016 -0.0128893 0)
(10.0061 -0.0203165 0)
(10.0124 -0.0253772 0)
(10.0188 -0.0294326 0)
(10.025 -0.0328928 0)
(10.0312 -0.0354902 0)
(10.0373 -0.0372547 0)
(10.0431 -0.0384518 0)
(10.0486 -0.0392824 0)
(10.0538 -0.0398442 0)
(10.0587 -0.0402026 0)
(10.0633 -0.0404162 0)
(10.0676 -0.0405327 0)
(10.0716 -0.0405848 0)
(10.0754 -0.0405942 0)
(10.0789 -0.0405741 0)
(10.0822 -0.0405212 0)
(9.9998 -0.0035481 0)
(10.0012 -0.0165485 0)
(10.007 -0.0255178 0)
(10.0141 -0.0296896 0)
(10.0207 -0.0330088 0)
(10.0273 -0.0364612 0)
(10.0342 -0.0393902 0)
(10.0409 -0.041564 0)
(10.0473 -0.0431417 0)
(10.0532 -0.0442704 0)
(10.0588 -0.0450304 0)
(10.064 -0.0454964 0)
(10.0689 -0.045745 0)
(10.0734 -0.045841 0)
(10.0776 -0.0458319 0)
(10.0815 -0.0457509 0)
(10.0852 -0.0456239 0)
(10.0886 -0.0454606 0)
(9.99829 9.87396e-07 0)
(9.99798 -0.017618 0)
(10.0068 -0.0315006 0)
(10.0162 -0.037584 0)
(10.0234 -0.0402793 0)
(10.0303 -0.0418283 0)
(10.0379 -0.0427818 0)
(10.0455 -0.0434738 0)
(10.0527 -0.0440712 0)
(10.0594 -0.0445816 0)
(10.0657 -0.0449722 0)
(10.0716 -0.0452542 0)
(10.0771 -0.0454499 0)
(10.0821 -0.0455871 0)
(10.0868 -0.0456802 0)
(10.0911 -0.0457454 0)
(10.0951 -0.0457878 0)
(10.0988 -0.0457756 0)
(9.99413 0.00277702 0)
(9.98996 -0.00759954 0)
(10.0032 -0.0228579 0)
(10.0185 -0.0396774 0)
(10.0302 -0.0530671 0)
(10.0403 -0.0608367 0)
(10.0501 -0.0643711 0)
(10.0593 -0.0656168 0)
(10.0678 -0.0657022 0)
(10.0756 -0.0650747 0)
(10.083 -0.0640169 0)
(10.0897 -0.0627185 0)
(10.0959 -0.0613426 0)
(10.1016 -0.0599695 0)
(10.1067 -0.0586645 0)
(10.1114 -0.0574566 0)
(10.1157 -0.0563716 0)
(10.1196 -0.0553622 0)
(9.9942 -0.030507 0)
(9.99526 -0.0134563 0)
(10.0086 0.0215206 0)
(10.0272 0.0320196 0)
(10.047 0.0241461 0)
(10.0668 0.0116052 0)
(10.085 -0.00011153 0)
(10.1007 -0.0103259 0)
(10.1139 -0.0189643 0)
(10.1251 -0.0260354 0)
(10.1343 -0.0316343 0)
(10.1418 -0.0360037 0)
(10.1476 -0.0393749 0)
(10.152 -0.0419654 0)
(10.155 -0.0439386 0)
(10.1569 -0.0454638 0)
(10.1579 -0.0466701 0)
(10.1579 -0.047703 0)
(10.0368 -0.209412 0)
(10.1083 -0.365899 0)
(10.1423 -0.352746 0)
(10.1567 -0.298034 0)
(10.1697 -0.247622 0)
(10.182 -0.206789 0)
(10.1884 -0.174352 0)
(10.1867 -0.148988 0)
(10.1774 -0.129269 0)
(10.1619 -0.113744 0)
(10.1414 -0.101345 0)
(10.1169 -0.0913144 0)
(10.0894 -0.0831192 0)
(10.0598 -0.0763544 0)
(10.0288 -0.0707392 0)
(9.99693 -0.0660937 0)
(9.96472 -0.0622676 0)
(9.93284 -0.059562 0)
(9.92866 0.765531 0)
(9.83924 0.742069 0)
(9.70534 0.524432 0)
(9.52636 0.348784 0)
(9.33186 0.227692 0)
(9.14063 0.146988 0)
(8.95883 0.0935851 0)
(8.78893 0.0579916 0)
(8.63234 0.0341271 0)
(8.48968 0.0181106 0)
(8.36033 0.00744647 0)
(8.24347 0.000468957 0)
(8.13793 -0.00407832 0)
(8.04265 -0.00693132 0)
(7.95651 -0.00860862 0)
(7.87854 -0.00954593 0)
(7.80738 -0.0100269 0)
(7.74266 -0.0106374 0)
(0.0023423 -0.00415835 -8.49347e-19)
(0.010551 -0.0114487 7.41957e-19)
(0.0218177 -0.016097 0)
(0.0341427 -0.0175043 0)
(0.0453642 -0.0163592 0)
(0.0545269 -0.0137193 -4.17311e-19)
(0.0612933 -0.0104326 0)
(0.065616 -0.00702192 0)
(0.067648 -0.00377947 0)
(0.0674758 -0.000908954 0)
(0.0654417 0.00142361 3.75458e-19)
(0.0619721 0.00317556 0)
(0.0573621 0.00444275 0)
(0.0518322 0.00538748 0)
(0.0455162 0.00617623 0)
(0.0384574 0.00694902 4.13457e-19)
(0.0306291 0.00780927 0)
(0.0219635 0.00881736 0)
(0.0123624 0.00996313 0)
(0.00170046 0.0111245 0)
(-0.0101443 0.0121451 0)
(-0.0233441 0.0130854 0)
(-0.0380657 0.0140979 0)
(-0.0544512 0.0152583 3.3969e-19)
(-0.0726446 0.0165979 -3.08333e-19)
(-0.0927772 0.0181284 2.7999e-19)
(-0.114958 0.0198464 2.5444e-19)
(-0.139265 0.0217281 0)
(-0.165742 0.0237232 0)
(-0.194372 0.0257541 -1.9258e-19)
(-0.225084 0.0277432 -1.76312e-19)
(-0.257771 0.0296399 0)
(-0.292292 0.0314024 0)
(-0.32848 0.032995 -1.37973e-19)
(-0.366151 0.0343884 0)
(-0.40511 0.0355638 0)
(-0.445152 0.0365123 1.11543e-19)
(-0.486077 0.0372344 0)
(-0.527694 0.0377383 9.85685e-20)
(-0.569825 0.0380379 1.86268e-19)
(-0.612308 0.038151 0)
(-0.655 0.0380979 0)
(-0.697771 0.0379001 0)
(-0.740519 0.0375813 0)
(-0.783165 0.0371696 0)
(-0.825651 0.0367003 1.40921e-19)
(-0.867919 0.0362138 1.35667e-19)
(-0.90991 0.0357469 1.30843e-19)
(-0.951701 0.0353102 0)
(-0.993296 0.0348915 -1.22324e-19)
(-1.0347 0.0344881 0)
(-1.07593 0.0340979 1.15044e-19)
(-1.11698 0.0337197 1.11785e-19)
(-1.15787 0.0333522 0)
(-1.1986 0.0329939 0)
(-1.23918 0.0326432 0)
(-1.27959 0.0322984 1.00721e-19)
(-1.31986 0.0319574 0)
(-1.35996 0.0316181 0)
(-1.39989 0.0312783 0)
(-1.43965 0.0309356 0)
(-1.47922 0.030588 0)
(-1.5186 0.030233 0)
(-1.55775 0.0298686 0)
(-1.59667 0.0294929 0)
(-1.63534 0.0291039 -8.33351e-20)
(-1.67372 0.0286999 0)
(-1.71178 0.0282794 0)
(-1.74951 0.027841 7.89798e-20)
(-1.78687 0.0273834 7.76381e-20)
(-1.82382 0.0269057 0)
(-1.86034 0.0264067 -7.50949e-20)
(-1.89638 0.0258858 7.38863e-20)
(-1.9319 0.0253425 0)
(-1.96687 0.0247763 -7.15782e-20)
(-2.00125 0.0241868 0)
(-2.03499 0.0235741 0)
(-2.06806 0.0229381 6.83446e-20)
(-2.1004 0.022279 0)
(-2.13198 0.0215969 -6.63101e-20)
(-2.16275 0.0208921 0)
(-2.19267 0.0201651 6.435e-20)
(-2.2217 0.0194163 6.33923e-20)
(-2.24978 0.0186461 6.24466e-20)
(-2.27688 0.0178554 1.23022e-19)
(-2.30296 0.0170444 -1.21167e-19)
(-2.32796 0.0162139 0)
(-2.35185 0.0153642 0)
(-2.37459 0.0144954 0)
(-2.39612 0.0136071 -1.13833e-19)
(-2.41641 0.0126985 -1.12004e-19)
(-2.43543 0.011768 1.1017e-19)
(-2.45311 0.010813 0)
(-2.46942 0.0098294 -1.06476e-19)
(-2.48431 0.00881113 -1.0461e-19)
(-2.49772 0.00775008 -1.02728e-19)
(-2.5096 0.00663601 0)
(-2.51986 0.00545871 0)
(-2.52844 0.0042166 0)
(-2.53525 0.00293576 -9.50132e-20)
(-2.5402 0.00168457 0)
(-2.54314 0.000549141 0)
(-2.5442 -0.000432189 8.89387e-20)
(-2.54375 -0.00132554 0)
(-2.54172 -0.00219938 0)
(-2.53816 -0.00306384 8.24227e-20)
(-2.53304 -0.00392394 0)
(-2.52636 -0.0047803 0)
(-2.51812 -0.0056325 -7.54246e-20)
(-2.50829 -0.00648023 -7.2972e-20)
(-2.49688 -0.00732247 0)
(-2.48388 -0.00815883 6.78711e-20)
(-2.46929 -0.00898819 0)
(-2.4531 -0.0098102 -6.2491e-20)
(-2.43531 -0.0106238 0)
(-2.41594 -0.0114286 -5.68089e-20)
(-2.39497 -0.0122237 -5.38472e-20)
(-2.37242 -0.0130087 0)
(-2.3483 -0.0137827 0)
(-2.32262 -0.0145455 0)
(-2.29538 -0.0152964 0)
(-2.26661 -0.016035 0)
(-2.23631 -0.0167601 0)
(-2.20452 -0.0174714 0)
(-2.17123 -0.0181679 -2.68162e-20)
(-2.13649 -0.0188497 2.29629e-20)
(-2.10031 -0.019516 0)
(-2.06271 -0.0201672 0)
(-2.02373 -0.0208029 0)
(-1.9834 -0.0214239 0)
(-1.94174 -0.0220302 3.57698e-21)
(-1.8988 -0.0226217 0)
(-1.85458 -0.0231964 1.53652e-20)
(-1.80914 -0.0237548 -2.53217e-20)
(-1.76251 -0.0242962 0)
(-1.71474 -0.0248218 0)
(-1.66585 -0.0253336 0)
(-1.6159 -0.025829 6.87826e-20)
(-1.56493 -0.0263068 8.06552e-20)
(-1.51298 -0.0267683 0)
(-1.4601 -0.0272131 1.05773e-19)
(-1.40633 -0.0276415 1.19072e-19)
(-1.35172 -0.0280538 -1.32905e-19)
(-1.29633 -0.0284502 0)
(-1.2402 -0.028831 0)
(-1.18337 -0.0291964 -1.77953e-19)
(-1.1259 -0.029547 0)
(-1.06784 -0.0298832 0)
(-1.00924 -0.0302057 0)
(-0.950139 -0.0305148 0)
(-0.890592 -0.0308115 2.67503e-19)
(-0.830646 -0.0310964 2.88083e-19)
(-0.770348 -0.0313707 0)
(-0.709743 -0.0316352 3.32495e-19)
(-0.648876 -0.031891 0)
(-0.587789 -0.0321394 0)
(-0.526525 -0.0323818 4.08705e-19)
(-0.465123 -0.0326194 0)
(-0.403621 -0.0328534 4.67345e-19)
(-0.342057 -0.0330843 0)
(-0.280466 -0.0333131 0)
(-0.218887 -0.0335425 5.7043e-19)
(-0.15735 -0.0337932 0)
(-0.0958888 -0.0340637 6.5202e-19)
(-0.03458 -0.034272 0)
(0.0265646 -0.033915 0)
(0.08756 -0.0329937 0)
(0.148349 -0.0320412 -6.79181e-19)
(0.208888 -0.031142 0)
(0.26916 -0.0302907 6.496e-19)
(0.329161 -0.029475 0)
(0.388871 -0.0286798 0)
(0.448236 -0.0278843 0)
(0.507136 -0.027057 0)
(0.565392 -0.0261404 0)
(0.622431 -0.0250251 0)
(0.677982 -0.0234535 0)
(0.72749 -0.0207888 -1.13712e-18)
(0.776426 -0.0157318 0)
(0.775783 0.000913908 0)
(0.00529953 -0.0225203 2.07193e-18)
(0.0165152 -0.0361019 -1.27484e-18)
(0.025177 -0.0371109 0)
(0.0311667 -0.0331671 4.03695e-19)
(0.0348917 -0.0270396 0)
(0.0365506 -0.0200037 1.5512e-19)
(0.0363768 -0.0128228 -2.93091e-19)
(0.0345554 -0.00595968 -2.83918e-19)
(0.0312098 0.000321573 0)
(0.02648 0.00585175 -2.74985e-19)
(0.0203711 0.0105436 -1.37011e-19)
(0.0128499 0.0144419 0)
(0.00390811 0.0177099 0)
(-0.00646751 0.0205616 0)
(-0.0182973 0.0232194 0)
(-0.0316141 0.0258757 -1.25091e-19)
(-0.0464706 0.0286709 0)
(-0.0629458 0.0316917 2.31454e-19)
(-0.0811455 0.034977 0)
(-0.101166 0.0385389 0)
(-0.123056 0.0423723 -2.05339e-19)
(-0.146848 0.0464723 0)
(-0.172598 0.0508388 1.89067e-19)
(-0.20034 0.0554459 -9.06539e-20)
(-0.230059 0.0602315 8.67053e-20)
(-0.26169 0.0651037 -8.28172e-20)
(-0.295127 0.0699516 -7.90066e-20)
(-0.330215 0.0746615 0)
(-0.366764 0.0791371 0)
(-0.40457 0.083302 6.82001e-20)
(-0.44344 0.0870796 -6.47228e-20)
(-0.483179 0.0904023 0)
(-0.52359 0.0932308 0)
(-0.564483 0.09555 5.62937e-20)
(-0.605682 0.0973597 0)
(-0.647029 0.0986627 0)
(-0.688384 0.0994849 -4.94241e-20)
(-0.729635 0.0998701 0)
(-0.770691 0.0998679 4.5559e-20)
(-0.811485 0.0995308 -8.80898e-20)
(-0.851971 0.098912 0)
(-0.892118 0.0980629 0)
(-0.931911 0.0970315 -1.59075e-19)
(-0.971349 0.0958616 -1.5429e-19)
(-1.01044 0.0945937 -1.49859e-19)
(-1.04921 0.0932685 7.27436e-20)
(-1.08768 0.0919289 -7.10892e-20)
(-1.12585 0.0906145 -2.07644e-19)
(-1.16373 0.0893429 1.34987e-19)
(-1.20132 0.0881118 6.6054e-20)
(-1.23864 0.0869174 0)
(-1.27568 0.0857563 -6.31709e-20)
(-1.31247 0.0846244 6.15675e-20)
(-1.349 0.0835179 0)
(-1.38527 0.082432 0)
(-1.4213 0.0813622 0)
(-1.45708 0.0803035 -5.71755e-20)
(-1.49259 0.0792509 0)
(-1.52785 0.0781992 1.10014e-19)
(-1.56284 0.0771433 0)
(-1.59754 0.0760784 1.06286e-19)
(-1.63195 0.0749995 0)
(-1.66605 0.0739021 -1.02835e-19)
(-1.69982 0.072782 0)
(-1.73324 0.0716352 9.96214e-20)
(-1.76629 0.070458 -4.89116e-20)
(-1.79894 0.0692474 0)
(-1.83117 0.0680004 -9.51672e-20)
(-1.86296 0.0667145 -4.70113e-20)
(-1.89427 0.0653876 -4.6326e-20)
(-1.92507 0.0640181 0)
(-1.95534 0.0626043 -4.47593e-20)
(-1.98505 0.0611454 -4.43612e-20)
(-2.01416 0.0596405 0)
(-2.04263 0.0580892 4.31132e-20)
(-2.07044 0.0564915 -8.47886e-20)
(-2.09755 0.0548476 0)
(-2.12393 0.0531579 -4.13089e-20)
(-2.14954 0.0514233 0)
(-2.17435 0.0496444 1.20223e-19)
(-2.19832 0.0478226 0)
(-2.22142 0.045959 -1.16772e-19)
(-2.2436 0.0440552 -3.84072e-20)
(-2.26485 0.0421124 3.76778e-20)
(-2.28512 0.0401327 7.42269e-20)
(-2.30437 0.0381175 -7.30971e-20)
(-2.32258 0.036069 0)
(-2.33971 0.0339888 0)
(-2.35573 0.0318787 0)
(-2.3706 0.0297399 2.05974e-19)
(-2.3843 0.0275734 6.75376e-20)
(-2.39678 0.0253804 -6.63428e-20)
(-2.40804 0.0231613 0)
(-2.41802 0.0209164 -6.38184e-20)
(-2.42672 0.0186452 6.26761e-20)
(-2.43412 0.016347 6.14223e-20)
(-2.44019 0.0140196 0)
(-2.44494 0.011658 0)
(-2.44838 0.00925495 0)
(-2.45056 0.00681476 5.62275e-20)
(-2.45155 0.0043772 0)
(-2.45148 0.00202122 -1.07079e-19)
(-2.45029 -0.000196251 -1.56331e-19)
(-2.44766 -0.00231837 1.01401e-19)
(-2.44355 -0.00440384 0)
(-2.43794 -0.00646363 4.78684e-20)
(-2.43081 -0.00850324 0)
(-2.42214 -0.0105229 8.94593e-20)
(-2.41192 -0.0125211 -4.33149e-20)
(-2.40014 -0.0144963 -4.17426e-20)
(-2.3868 -0.0164461 0)
(-2.37189 -0.0183687 -1.14796e-19)
(-2.35541 -0.0202618 7.33104e-20)
(-2.33735 -0.0221235 3.47399e-20)
(-2.31772 -0.0239517 0)
(-2.29651 -0.0257446 3.12188e-20)
(-2.27374 -0.0275002 8.87473e-20)
(-2.24941 -0.0292169 0)
(-2.22352 -0.0308928 5.19787e-20)
(-2.19609 -0.0325267 4.8207e-20)
(-2.16713 -0.0341169 4.43722e-20)
(-2.13665 -0.0356622 0)
(-2.10467 -0.0371604 0)
(-2.07121 -0.0386099 0)
(-2.03628 -0.0400087 -1.45567e-20)
(-1.9999 -0.041356 -1.17514e-20)
(-1.96211 -0.04265 0)
(-1.92291 -0.0438906 -1.5742e-20)
(-1.88236 -0.0450766 -1.13945e-20)
(-1.84046 -0.0462087 0)
(-1.79726 -0.0472863 -1.6525e-21)
(-1.75278 -0.04831 4.06967e-21)
(-1.70706 -0.04928 -7.53573e-21)
(-1.66012 -0.0501971 -1.03958e-20)
(-1.61202 -0.051055 0)
(-1.56278 -0.0518495 0)
(-1.51245 -0.0525876 0)
(-1.46106 -0.0532734 -3.16322e-20)
(-1.40867 -0.0539025 3.46321e-20)
(-1.35531 -0.0544727 8.13941e-20)
(-1.30103 -0.0549852 -4.68581e-20)
(-1.24589 -0.0554412 4.99579e-20)
(-1.18992 -0.0558412 5.73282e-20)
(-1.13317 -0.0561864 0)
(-1.07569 -0.0564776 0)
(-1.01754 -0.0567161 -7.13042e-20)
(-0.958762 -0.0569031 0)
(-0.899402 -0.0570402 0)
(-0.839511 -0.0571286 1.78246e-19)
(-0.77914 -0.0571704 0)
(-0.718336 -0.0571672 9.94327e-20)
(-0.657147 -0.0571213 -1.07557e-19)
(-0.595622 -0.0570345 0)
(-0.533804 -0.0569097 1.17061e-19)
(-0.47174 -0.0567488 0)
(-0.409473 -0.0565547 0)
(-0.347043 -0.0563298 -1.37582e-19)
(-0.284491 -0.0560767 2.85166e-19)
(-0.221855 -0.0557977 -1.49992e-19)
(-0.159172 -0.0554939 0)
(-0.0964745 -0.055166 0)
(-0.0338017 -0.054816 1.66659e-19)
(0.0288344 -0.0544448 0)
(0.0914085 -0.0540522 1.72857e-19)
(0.153916 -0.0536295 0)
(0.216311 -0.0530194 0)
(0.27848 -0.0521934 0)
(0.340421 -0.0513235 1.82626e-19)
(0.402166 -0.0504697 0)
(0.463702 -0.0496364 -1.86119e-19)
(0.525014 -0.0488117 0)
(0.586069 -0.0479747 0)
(0.646806 -0.0470919 3.79339e-19)
(0.707108 -0.0461077 -3.81996e-19)
(0.766788 -0.0449154 0)
(0.825375 -0.0433145 0)
(0.882504 -0.04081 0)
(0.935395 -0.0364659 1.181e-18)
(0.987137 -0.0273014 0)
(1.01624 -0.00498511 -8.20137e-19)
(0.00488012 -0.0439557 -3.4875e-22)
(0.0117767 -0.0537037 1.3098e-18)
(0.0147386 -0.0465475 0)
(0.0150856 -0.0363989 -5.68534e-19)
(0.0134889 -0.0257836 0)
(0.0102466 -0.0153231 0)
(0.00560002 -0.00531016 3.20332e-23)
(-0.000321729 0.00406803 1.8146e-19)
(-0.00747425 0.0127023 1.72762e-19)
(-0.0158738 0.020562 1.65991e-19)
(-0.0255722 0.0276751 0)
(-0.0366448 0.0341232 0)
(-0.0491746 0.0400454 -1.51357e-19)
(-0.0632386 0.045624 -2.941e-19)
(-0.0789006 0.0510542 2.85556e-19)
(-0.0962103 0.0565138 0)
(-0.115205 0.062143 2.68631e-19)
(-0.135915 0.0680337 -1.30264e-19)
(-0.158359 0.0742298 0)
(-0.182547 0.0807361 2.44198e-19)
(-0.208455 0.0875378 1.18236e-19)
(-0.236017 0.0945864 -2.28282e-19)
(-0.265139 0.101796 -1.10251e-19)
(-0.295695 0.109056 0)
(-0.327528 0.116239 2.04354e-19)
(-0.360459 0.123205 1.96519e-19)
(-0.3943 0.129814 0)
(-0.42886 0.135939 1.8143e-19)
(-0.46396 0.141472 0)
(-0.499437 0.146333 1.67555e-19)
(-0.53514 0.150475 8.06153e-20)
(-0.570933 0.153867 0)
(-0.60671 0.156503 0)
(-0.642385 0.158396 0)
(-0.677883 0.159584 0)
(-0.713156 0.160127 0)
(-0.748188 0.160093 0)
(-0.782973 0.159554 1.24792e-19)
(-0.817512 0.158587 -1.81245e-19)
(-0.851815 0.157266 0)
(-0.885896 0.155665 0)
(-0.919771 0.153849 0)
(-0.95346 0.151879 8.33924e-23)
(-0.986981 0.149807 1.046e-19)
(-1.02035 0.147678 2.03791e-19)
(-1.05359 0.145532 -1.98795e-19)
(-1.0867 0.143401 -9.69914e-20)
(-1.11969 0.141308 9.4887e-20)
(-1.15256 0.139265 -1.23356e-22)
(-1.1853 0.137275 9.06784e-20)
(-1.2179 0.135336 0)
(-1.25038 0.133444 8.69917e-20)
(-1.28272 0.131593 -1.43377e-22)
(-1.31493 0.129778 0)
(-1.347 0.127991 0)
(-1.37892 0.126224 -8.05872e-20)
(-1.41069 0.12447 0)
(-1.4423 0.12272 0)
(-1.47374 0.120967 7.62877e-20)
(-1.505 0.119203 1.50335e-19)
(-1.53605 0.117422 -7.40927e-20)
(-1.56689 0.115614 0)
(-1.5975 0.113776 7.17426e-20)
(-1.62786 0.111899 0)
(-1.65794 0.10998 6.9212e-20)
(-1.68773 0.108012 6.84703e-20)
(-1.7172 0.105992 -1.3456e-19)
(-1.74633 0.103915 -6.61178e-20)
(-1.77508 0.101778 0)
(-1.80344 0.0995786 1.28653e-19)
(-1.83137 0.0973144 0)
(-1.85884 0.0949836 1.87517e-19)
(-1.88582 0.0925849 1.23094e-19)
(-1.91228 0.0901175 1.21301e-19)
(-1.93819 0.0875813 -1.19534e-19)
(-1.96352 0.0849762 1.76814e-19)
(-1.98822 0.0823029 0)
(-2.01227 0.0795623 0)
(-2.03563 0.0767557 -1.12654e-19)
(-2.05827 0.0738846 -1.66566e-19)
(-2.08015 0.070951 0)
(-2.10123 0.067957 5.39117e-20)
(-2.12148 0.0649049 0)
(-2.14087 0.0617973 -1.56512e-19)
(-2.15936 0.058637 -1.71041e-22)
(-2.17692 0.0554267 1.58607e-22)
(-2.19351 0.0521697 9.92592e-20)
(-2.2091 0.0488689 0)
(-2.22365 0.0455274 -9.58772e-20)
(-2.23714 0.0421478 -1.04987e-22)
(-2.24954 0.0387332 0)
(-2.26081 0.0352864 0)
(-2.27092 0.0318106 0)
(-2.27987 0.0283093 8.72392e-20)
(-2.28761 0.0247865 0)
(-2.29414 0.0212475 0)
(-2.29945 0.0176998 0)
(-2.30352 0.0141537 0)
(-2.30635 0.010624 0)
(-2.30795 0.00713159 7.61441e-20)
(-2.30831 0.00369673 0)
(-2.30737 0.000319133 7.2106e-20)
(-2.30509 -0.003029 7.00643e-20)
(-2.30139 -0.0063607 -6.7997e-20)
(-2.29626 -0.00966773 0)
(-2.28968 -0.0129466 -6.37815e-20)
(-2.28162 -0.016195 0)
(-2.27206 -0.0194097 -5.94536e-20)
(-2.26101 -0.0225876 5.72465e-20)
(-2.24844 -0.0257249 1.65474e-19)
(-2.23435 -0.0288183 0)
(-2.21874 -0.0318642 1.51861e-19)
(-2.20161 -0.0348592 4.86712e-20)
(-2.18294 -0.0377999 0)
(-2.16274 -0.0406832 8.73894e-20)
(-2.14102 -0.0435058 8.25975e-20)
(-2.11777 -0.0462647 -1.16281e-19)
(-2.09301 -0.0489571 0)
(-2.06673 -0.0515803 -3.35646e-20)
(-2.03895 -0.0541319 -3.10379e-20)
(-2.00969 -0.0566094 -8.62577e-20)
(-1.97894 -0.0590103 0)
(-1.94674 -0.0613319 0)
(-1.91309 -0.0635713 0)
(-1.87802 -0.065726 -1.89271e-20)
(-1.84153 -0.0677939 0)
(-1.80367 -0.069773 0)
(-1.76444 -0.0716619 9.87962e-21)
(-1.72388 -0.0734594 7.12643e-21)
(-1.68202 -0.075165 0)
(-1.63889 -0.0767788 0)
(-1.59451 -0.0783015 -2.51797e-21)
(-1.54892 -0.0797332 0)
(-1.50215 -0.0810734 1.38914e-20)
(-1.45424 -0.0823167 1.84591e-20)
(-1.40523 -0.0834587 0)
(-1.35515 -0.084505 0)
(-1.30404 -0.0854589 -3.58125e-20)
(-1.25196 -0.0863174 -1.24861e-21)
(-1.19893 -0.0870784 -1.26548e-21)
(-1.14501 -0.0877429 0)
(-1.09024 -0.0883121 -1.19959e-19)
(-1.03467 -0.0887874 0)
(-0.978346 -0.0891703 0)
(-0.921315 -0.0894624 0)
(-0.863625 -0.0896655 8.45179e-20)
(-0.805326 -0.0897816 0)
(-0.746465 -0.0898132 -1.90335e-19)
(-0.687092 -0.0897624 -1.02553e-19)
(-0.627254 -0.0896322 0)
(-0.567 -0.0894254 -1.14597e-19)
(-0.506377 -0.0891454 0)
(-0.44543 -0.0887953 0)
(-0.384206 -0.0883792 -3.95125e-19)
(-0.322749 -0.0879003 2.74476e-19)
(-0.261099 -0.087363 0)
(-0.199299 -0.0867709 2.98394e-19)
(-0.137386 -0.0861274 -1.56564e-19)
(-0.0753982 -0.085436 0)
(-0.0133675 -0.0847018 0)
(0.0486765 -0.0839293 0)
(0.110701 -0.0831217 -5.24631e-19)
(0.172674 -0.0822737 0)
(0.234565 -0.0813871 -1.82237e-19)
(0.296367 -0.0804689 0)
(0.358073 -0.0795149 0)
(0.419651 -0.0785191 0)
(0.481086 -0.0775008 0)
(0.542373 -0.076485 0)
(0.603487 -0.0754713 0)
(0.664402 -0.0744447 -4.03092e-19)
(0.72508 -0.0733773 0)
(0.785461 -0.0722214 -2.07703e-19)
(0.845432 -0.0708949 6.28001e-19)
(0.904823 -0.0692466 0)
(0.963249 -0.0669912 0)
(1.02044 -0.0635283 -4.31819e-19)
(1.07456 -0.0576841 -4.38888e-19)
(1.12859 -0.0467508 4.44188e-19)
(1.17025 -0.0236625 4.57439e-19)
(0.00219288 -0.0563795 -3.13885e-18)
(0.00313392 -0.0572657 -1.64177e-18)
(0.000762218 -0.0442392 -6.39166e-19)
(-0.00340682 -0.0301596 -2.27581e-19)
(-0.00896958 -0.0165031 0)
(-0.0157277 -0.00347573 3.20192e-19)
(-0.0235748 0.00887019 -1.45049e-19)
(-0.032483 0.0205009 0)
(-0.0424788 0.0314063 -1.27972e-19)
(-0.05362 0.0416101 0)
(-0.0659836 0.0511734 2.37372e-19)
(-0.0796551 0.0601963 0)
(-0.094717 0.0688136 1.12005e-19)
(-0.111238 0.0771817 2.17831e-19)
(-0.129265 0.0854573 -2.1174e-19)
(-0.148819 0.0937759 0)
(-0.169892 0.102235 -1.99612e-19)
(-0.192452 0.110886 0)
(-0.216443 0.119731 0)
(-0.241782 0.128727 -1.81574e-19)
(-0.268363 0.137793 0)
(-0.296052 0.146821 7.56139e-23)
(-0.324695 0.155684 0)
(-0.354125 0.164246 0)
(-0.384171 0.172368 -4.5885e-23)
(-0.414666 0.179919 -1.46826e-19)
(-0.445458 0.186787 -1.41429e-19)
(-0.476413 0.192885 -1.36274e-19)
(-0.507417 0.198152 0)
(-0.538379 0.202554 -2.53135e-19)
(-0.569228 0.206077 0)
(-0.599911 0.208734 -1.17749e-19)
(-0.6304 0.210559 0)
(-0.660681 0.211603 0)
(-0.690762 0.211933 1.06168e-19)
(-0.720662 0.211634 0)
(-0.750402 0.210793 -9.95792e-20)
(-0.780006 0.209494 2.25109e-23)
(-0.809499 0.207815 1.87514e-19)
(-0.838906 0.205831 -1.82245e-19)
(-0.86825 0.203612 0)
(-0.89755 0.20122 0)
(-0.926822 0.198709 -8.4093e-20)
(-0.956079 0.196125 0)
(-0.985329 0.193507 -8.00652e-20)
(-1.01458 0.190887 7.82113e-20)
(-1.04382 0.188287 7.64525e-20)