# vtk DataFile Version 2.0
track0
ASCII
DATASET POLYDATA
POINTS 10920 double
-0.0205 0.001 1e-05
-0.0202034 0.00100022 1e-05
-0.0199069 0.00100067 1e-05
-0.0196103 0.00100132 1e-05
-0.0193137 0.00100216 1e-05
-0.0190172 0.0010032 1e-05
-0.0187132 0.00100461 1e-05
-0.0184093 0.00100572 1e-05
-0.0181054 0.00100681 1e-05
-0.0178015 0.00100785 1e-05
-0.0174976 0.00100886 1e-05
-0.0172058 0.00101001 1e-05
-0.016914 0.00101082 1e-05
-0.0166222 0.0010116 1e-05
-0.0163305 0.00101236 1e-05
-0.0160387 0.00101308 1e-05
-0.0157586 0.00101395 1e-05
-0.0154784 0.00101463 1e-05
-0.0151983 0.00101536 1e-05
-0.0149182 0.00101612 1e-05
-0.0146381 0.00101692 1e-05
-0.0143692 0.00101784 1e-05
-0.0141002 0.00101869 1e-05
-0.0138313 0.0010196 1e-05
-0.0135624 0.00102056 1e-05
-0.0132934 0.00102157 1e-05
-0.0130397 0.00102262 1e-05
-0.0127859 0.00102366 1e-05
-0.0125321 0.00102474 1e-05
-0.0122784 0.00102585 1e-05
-0.012066 0.00102682 1e-05
-0.0120533 0.00102688 1e-05
-0.0120406 0.00102694 1e-05
-0.0120279 0.00102699 1e-05
-0.0120152 0.00102705 1e-05
-0.0120025 0.00102711 1e-05
-0.0117547 0.00102828 1e-05
-0.0115068 0.00102947 1e-05
-0.0112589 0.00103068 1e-05
-0.0110111 0.00103192 1e-05
-0.0107632 0.00103318 1e-05
-0.0105252 0.0010344 1e-05
-0.0102873 0.00103565 1e-05
-0.0100493 0.00103691 1e-05
-0.00981133 0.00103819 1e-05
-0.00957337 0.00103948 1e-05
-0.00934491 0.00104071 1e-05
-0.00911645 0.00104197 1e-05
-0.008888 0.00104324 1e-05
-0.00865954 0.00104451 1e-05
-0.00843108 0.00104579 1e-05
-0.00821175 0.00104701 1e-05
-0.00799242 0.00104825 1e-05
-0.00777309 0.00104949 1e-05
-0.00755376 0.00105073 1e-05
-0.00733443 0.00105198 1e-05
-0.00712387 0.00105316 1e-05
-0.0069133 0.00105436 1e-05
-0.00670273 0.00105555 1e-05
-0.00649217 0.00105675 1e-05
-0.0062816 0.00105795 1e-05
-0.00607944 0.00105908 1e-05
-0.00587729 0.00106022 1e-05
-0.00567514 0.00106136 1e-05
-0.00547298 0.0010625 1e-05
-0.00527083 0.00106363 1e-05
-0.00507675 0.0010647 1e-05
-0.00488267 0.00106578 1e-05
-0.0046886 0.00106686 1e-05
-0.00449452 0.00106793 1e-05
-0.00430044 0.001069 1e-05
-0.00411412 0.00107001 1e-05
-0.0039278 0.00107102 1e-05
-0.00374147 0.00107203 1e-05
-0.00355515 0.00107303 1e-05
-0.00336883 0.00107403 1e-05
-0.00318995 0.00107497 1e-05
-0.00301107 0.00107591 1e-05
-0.00283219 0.00107685 1e-05
-0.00265331 0.00107778 1e-05
-0.00247443 0.0010787 1e-05
-0.0023027 0.00107956 1e-05
-0.00213097 0.00108043 1e-05
-0.00195924 0.00108129 1e-05
-0.0017875 0.00108214 1e-05
-0.00161577 0.00108298 1e-05
-0.0014509 0.00108377 1e-05
-0.00128603 0.00108455 1e-05
-0.00112116 0.00108532 1e-05
-0.000956289 0.00108608 1e-05
-0.000791418 0.00108683 1e-05
-0.000633135 0.00108751 1e-05
-0.000474851 0.00108819 1e-05
-0.000316567 0.00108885 1e-05
-0.000158283 0.00108949 1e-05
0 0.00109011 1e-05
0.000105677 0.0010905 1e-05
0.000211355 0.00109089 1e-05
0.000317032 0.00109126 1e-05
0.00042271 0.00109162 1e-05
0.000528387 0.00109197 1e-05
0.000634886 0.00109231 1e-05
0.000741385 0.00109264 1e-05
0.000847885 0.00109296 1e-05
0.000954384 0.00109327 1e-05
0.00106088 0.00109358 1e-05
0.00116821 0.00109387 1e-05
0.00127554 0.00109416 1e-05
0.00138286 0.00109444 1e-05
0.00149019 0.00109471 1e-05
0.00159752 0.00109497 1e-05
0.00170568 0.00109521 1e-05
0.00181384 0.00109546 1e-05
0.001922 0.0010957 1e-05
0.00203016 0.00109593 1e-05
0.00213833 0.00109615 1e-05
0.00224733 0.00109635 1e-05
0.00235633 0.00109655 1e-05
0.00246533 0.00109675 1e-05
0.00257434 0.00109694 1e-05
0.00268334 0.00109712 1e-05
0.00279319 0.00109729 1e-05
0.00290304 0.00109746 1e-05
0.00301289 0.00109763 1e-05
0.00312274 0.00109779 1e-05
0.00323259 0.00109795 1e-05
0.00334329 0.00109809 1e-05
0.003454 0.00109823 1e-05
0.0035647 0.00109837 1e-05
0.0036754 0.00109851 1e-05
0.00378611 0.00109864 1e-05
0.00389767 0.00109876 1e-05
0.00400924 0.00109889 1e-05
0.0041208 0.00109901 1e-05
0.00423237 0.00109913 1e-05
0.00434393 0.00109924 1e-05
0.00445636 0.00109934 1e-05
0.00456879 0.00109944 1e-05
0.00468123 0.00109954 1e-05
0.00479366 0.00109963 1e-05
0.00490609 0.00109973 1e-05
0.0050194 0.00109981 1e-05
0.0051327 0.00109989 1e-05
0.00524601 0.00109997 1e-05
0.00535931 0.00110004 1e-05
0.00547262 0.00110011 1e-05
0.00558681 0.00110018 1e-05
0.005701 0.00110024 1e-05
0.00581518 0.0011003 1e-05
0.00592937 0.00110035 1e-05
0.00604356 0.0011004 1e-05
0.00612233 0.00110044 1e-05
0.00620111 0.00110047 1e-05
0.00627988 0.00110049 1e-05
0.00635865 0.00110052 1e-05
0.0064359 0.00110054 1e-05
0.0064725 0.00110055 1e-05
0.00650911 0.00110056 1e-05
0.00654572 0.00110057 1e-05
0.00658232 0.00110058 1e-05
0.00661893 0.00110059 1e-05
0.0067349 0.00110062 1e-05
0.00685087 0.00110064 1e-05
0.00696684 0.00110066 1e-05
0.00708281 0.00110067 1e-05
0.00719878 0.00110068 1e-05
0.00731565 0.00110068 1e-05
0.00743252 0.00110068 1e-05
0.00754939 0.00110067 1e-05
0.00766626 0.00110067 1e-05
0.00778313 0.00110065 1e-05
0.00790091 0.00110063 1e-05
0.00801869 0.0011006 1e-05
0.00813647 0.00110057 1e-05
0.00825425 0.00110054 1e-05
0.00837203 0.0011005 1e-05
0.00849073 0.00110045 1e-05
0.00860942 0.0011004 1e-05
0.00872812 0.00110035 1e-05
0.00884682 0.00110029 1e-05
0.00896551 0.00110023 1e-05
0.00908513 0.00110014 1e-05
0.00920475 0.00110007 1e-05
0.00932437 0.00109999 1e-05
0.00944398 0.0010999 1e-05
0.0095636 0.00109981 1e-05
0.00968415 0.0010997 1e-05
0.0098047 0.00109959 1e-05
0.00992525 0.00109949 1e-05
0.0100458 0.00109937 1e-05
0.0101663 0.00109925 1e-05
0.0102878 0.0010991 1e-05
0.0104093 0.00109897 1e-05
0.0105308 0.00109883 1e-05
0.0106523 0.00109869 1e-05
0.0107738 0.00109854 1e-05
0.0108962 0.00109835 1e-05
0.0110186 0.00109819 1e-05
0.0111411 0.00109802 1e-05
0.0112635 0.00109784 1e-05
0.0113859 0.00109766 1e-05
0.0115093 0.00109743 1e-05
0.0116327 0.00109724 1e-05
0.0117561 0.00109703 1e-05
0.0118795 0.00109682 1e-05
0.0120028 0.0010966 1e-05
0.0121272 0.00109634 1e-05
0.0122515 0.00109611 1e-05
0.0123759 0.00109587 1e-05
0.0125002 0.00109562 1e-05
0.0126245 0.00109537 1e-05
0.0127498 0.00109507 1e-05
0.0128752 0.00109479 1e-05
0.0130005 0.00109451 1e-05
0.0131258 0.00109423 1e-05
0.0132511 0.00109394 1e-05
0.0133774 0.00109359 1e-05
0.0135036 0.00109328 1e-05
0.0136299 0.00109296 1e-05
0.0137562 0.00109263 1e-05
0.0138825 0.0010923 1e-05
0.0140098 0.00109192 1e-05
0.014137 0.00109156 1e-05
0.0142643 0.00109119 1e-05
0.0143915 0.00109083 1e-05
0.0145188 0.00109044 1e-05
0.0146471 0.00109002 1e-05
0.0147753 0.00108961 1e-05
0.0149036 0.00108921 1e-05
0.0150318 0.00108879 1e-05
0.0151601 0.00108836 1e-05
0.0152893 0.00108789 1e-05
0.0154186 0.00108744 1e-05
0.0155478 0.00108699 1e-05
0.0156771 0.00108653 1e-05
0.0158063 0.00108605 1e-05
0.0159366 0.00108554 1e-05
0.0160668 0.00108504 1e-05
0.0161971 0.00108454 1e-05
0.0163274 0.00108403 1e-05
0.0164576 0.0010835 1e-05
0.0165889 0.00108294 1e-05
0.0167201 0.00108239 1e-05
0.0168514 0.00108184 1e-05
0.0169827 0.00108128 1e-05
0.0171139 0.0010807 1e-05
0.0172462 0.0010801 1e-05
0.0173785 0.00107949 1e-05
0.0175108 0.00107889 1e-05
0.0176431 0.00107828 1e-05
0.0177754 0.00107765 1e-05
0.0179087 0.001077 1e-05
0.018042 0.00107634 1e-05
0.0181753 0.00107569 1e-05
0.0183087 0.00107503 1e-05
0.018442 0.00107434 1e-05
0.0185763 0.00107364 1e-05
0.0187107 0.00107293 1e-05
0.018845 0.00107222 1e-05
0.0189794 0.0010715 1e-05
0.0191137 0.00107077 1e-05
0.0192491 0.00107001 1e-05
0.0193845 0.00106925 1e-05
0.0195199 0.00106849 1e-05
0.0196553 0.00106771 1e-05
0.0197907 0.00106692 1e-05
0.0199272 0.00106611 1e-05
0.0200636 0.0010653 1e-05
0.0202001 0.00106447 1e-05
0.0203365 0.00106364 1e-05
0.020473 0.00106279 1e-05
0.0206105 0.00106193 1e-05
0.020748 0.00106106 1e-05
0.0208855 0.00106018 1e-05
0.021023 0.00105928 1e-05
0.0211606 0.00105839 1e-05
0.0212991 0.00105747 1e-05
0.0214377 0.00105654 1e-05
0.0215763 0.0010556 1e-05
0.0217149 0.00105465 1e-05
0.0218535 0.00105369 1e-05
0.0219931 0.00105272 1e-05
0.0221328 0.00105174 1e-05
0.0222724 0.00105073 1e-05
0.0224121 0.00104972 1e-05
0.0225517 0.00104871 1e-05
0.0226925 0.00104769 1e-05
0.0228332 0.00104664 1e-05
0.022974 0.00104558 1e-05
0.0231147 0.0010445 1e-05
0.0232555 0.00104343 1e-05
0.0233973 0.00104235 1e-05
0.0235391 0.00104125 1e-05
0.023681 0.00104013 1e-05
0.0238228 0.00103899 1e-05
0.0239647 0.00103786 1e-05
0.0241076 0.00103673 1e-05
0.0242505 0.00103557 1e-05
0.0243935 0.00103438 1e-05
0.0245364 0.00103319 1e-05
0.0246794 0.001032 1e-05
0.0248234 0.0010308 1e-05
0.0249675 0.00102958 1e-05
0.0251115 0.00102834 1e-05
0.0252556 0.00102708 1e-05
0.0253996 0.00102583 1e-05
0.0255448 0.00102458 1e-05
0.02569 0.0010233 1e-05
0.0258351 0.001022 1e-05
0.0259803 0.00102068 1e-05
0.0261255 0.00101937 1e-05
0.0262718 0.00101806 1e-05
0.0264181 0.00101672 1e-05
0.0265644 0.00101536 1e-05
0.0267107 0.00101398 1e-05
0.026857 0.00101261 1e-05
0.0270044 0.00101124 1e-05
0.0271519 0.00100984 1e-05
0.0272993 0.00100842 1e-05
0.0274468 0.00100698 1e-05
0.0275942 0.00100555 1e-05
0.0277428 0.00100412 1e-05
0.0278914 0.00100265 1e-05
0.0280399 0.00100117 1e-05
0.0281885 0.000999676 1e-05
0.0283371 0.000998181 1e-05
0.0284869 0.000996686 1e-05
0.0286366 0.000995156 1e-05
0.0287863 0.000993611 1e-05
0.0289361 0.000992057 1e-05
0.0290858 0.000990498 1e-05
0.0292367 0.000988938 1e-05
0.0293876 0.000987343 1e-05
0.0295385 0.000985736 1e-05
0.0296894 0.000984121 1e-05
0.0298403 0.000982496 1e-05
0.0299924 0.000980871 1e-05
0.0301445 0.000979211 1e-05
0.0302966 0.000977542 1e-05
0.0304486 0.000975863 1e-05
0.0306007 0.000974174 1e-05
0.030754 0.000972482 1e-05
0.0309072 0.000970758 1e-05
0.0310605 0.000969024 1e-05
0.0312138 0.00096728 1e-05
0.031367 0.000965527 1e-05
0.0315215 0.000963765 1e-05
0.0316759 0.000961975 1e-05
0.0318304 0.000960176 1e-05
0.0319848 0.000958366 1e-05
0.0321393 0.000956546 1e-05
0.0322949 0.000954712 1e-05
0.0324506 0.000952856 1e-05
0.0326062 0.000950988 1e-05
0.0327619 0.00094911 1e-05
0.0329175 0.000947221 1e-05
0.0330744 0.000945314 1e-05
0.0332313 0.000943388 1e-05
0.0333881 0.00094145 1e-05
0.033545 0.000939501 1e-05
[...]
POINT_DATA 10920
 FIELD attributes 1
U 3 10920 float
10.0004 	0.00757605 	0 10.0023 	0.0151319 	0 10.0042 	0.0217949 	0 10.0061 	0.0284126 	0 10.008 	0.0349855 	0 10.0143 	0.0464409 	0 10.016 	0.0368182 	0 10.0207 	0.0356226 	0 10.0255 	0.0344299 	0 10.0302 	0.0332403 	0 10.0386 	0.0396405 	0 10.0406 	0.0279006 	0 10.0458 	0.0269454 	0 10.051 	0.0259874 	0 10.0562 	0.0250266 	0 10.0638 	0.0310637 	0 10.0662 	0.0246539 	0 10.0707 	0.0260065 	0 10.0752 	0.0273648 	0 10.0797 	0.028729 	0 10.0854 	0.0346 	0 10.0883 	0.0320804 	0 10.0922 	0.0340232 	0 10.0961 	0.0359739 	0 10.1 	0.0379326 	0 10.1041 	0.0417983 	0 10.1072 	0.0414763 	0 10.1105 	0.0429572 	0 10.1137 	0.0444431 	0 10.1169 	0.0459341 	0 10.1196 	0.0471861 	0 10.1198 	0.047261 	0 10.1199 	0.0473359 	0 10.1201 	0.0474109 	0 10.1203 	0.0474858 	0 10.1204 	0.0475345 	0 10.123 	0.0485549 	0 10.1255 	0.0495586 	0 10.128 	0.0505649 	0 10.1306 	0.0515739 	0 10.1333 	0.0520943 	0 10.1349 	0.0530907 	0 10.1367 	0.0537364 	0 10.1384 	0.0543834 	0 10.1402 	0.0550317 	0 10.1424 	0.0548609 	0 10.1433 	0.0558256 	0 10.1445 	0.0562067 	0 10.1456 	0.0565884 	0 10.1468 	0.0569707 	0 10.1486 	0.0563397 	0 10.149 	0.0572409 	0 10.1497 	0.0574174 	0 10.1504 	0.0575942 	0 10.1511 	0.0577711 	0 10.1524 	0.0568501 	0 10.1527 	0.0576655 	0 10.153 	0.0576874 	0 10.1533 	0.0577094 	0 10.1536 	0.0577314 	0 10.1543 	0.0566472 	0 10.1548 	0.0573657 	0 10.1548 	0.0572704 	0 10.1548 	0.057175 	0 10.1548 	0.0570795 	0 10.1548 	0.055914 	0 10.1557 	0.0565269 	0 10.1555 	0.0563367 	0 10.1552 	0.0561465 	0 10.155 	0.0559561 	0 10.1542 	0.0547548 	0 10.1558 	0.0552533 	0 10.1553 	0.0549722 	0 10.1549 	0.0546909 	0 10.1545 	0.0544096 	0 10.1527 	0.0531796 	0 10.1553 	0.0535442 	0 10.1547 	0.0531623 	0 10.1541 	0.0527803 	0 10.1536 	0.0523982 	0 10.1507 	0.0511296 	0 10.1544 	0.0513307 	0 10.1538 	0.0508043 	0 10.1532 	0.0502778 	0 10.1526 	0.0497512 	0 10.1486 	0.0483772 	0 10.1535 	0.0482994 	0 10.1528 	0.0474687 	0 10.1521 	0.0466379 	0 10.1514 	0.045807 	0 10.146 	0.0441588 	0 10.1521 	0.0435641 	1.60538e-21 10.1513 	0.04223 	8.62062e-21 10.1504 	0.0408956 	1.56377e-20 10.1496 	0.0395611 	2.26567e-20 10.1427 	0.037695 	2.00115e-20 10.1493 	0.0371708 	1.25325e-19 10.1482 	0.0359453 	1.15685e-19 10.147 	0.0347196 	1.06024e-19 10.1459 	0.0334938 	9.63435e-20 10.1383 	0.0318705 	-2.01586e-20 10.1446 	0.0316588 	-5.3859e-20 10.1432 	0.0307262 	-6.00875e-20 10.1419 	0.0297933 	-6.63092e-20 10.1405 	0.0288603 	-7.25242e-20 10.1328 	0.0274094 	-3.11634e-20 10.1387 	0.0274087 	-2.69898e-20 10.1373 	0.0264653 	-1.89688e-20 10.1359 	0.0255216 	-1.09487e-20 10.1344 	0.0245776 	-2.92968e-21 10.1269 	0.0229781 	8.6106e-21 10.1326 	0.0231919 	-9.71461e-21 10.1311 	0.0222678 	-3.50899e-20 10.1296 	0.0213433 	-6.04684e-20 10.1281 	0.0204184 	-8.58499e-20 10.1208 	0.0186563 	-1.20239e-19 10.126 	0.0191416 	-1.60514e-19 10.1244 	0.0184152 	-1.43585e-19 10.1228 	0.0176885 	-1.26647e-19 10.1212 	0.0169615 	-1.09699e-19 10.114 	0.0152387 	-4.21478e-20 10.1186 	0.0158914 	3.32454e-20 10.1168 	0.0153706 	5.13351e-20 10.115 	0.0148494 	6.94159e-20 10.1133 	0.014328 	8.74879e-20 10.1065 	0.0127813 	5.01586e-20 10.1103 	0.0133981 	-3.99669e-20 10.1084 	0.0129822 	-4.77948e-20 10.1065 	0.0125661 	-5.56115e-20 10.1045 	0.0121498 	-6.3417e-20 10.0982 	0.0108272 	-7.13951e-22 10.1012 	0.011267 	5.62818e-20 10.0991 	0.0108833 	4.36066e-20 10.097 	0.0104994 	3.09211e-20 10.0949 	0.0101154 	1.82253e-20 10.0891 	0.00903317 	-4.13587e-20 10.091 	0.00925926 	-1.0006e-19 10.0887 	0.00889079 	-1.29179e-19 10.0864 	0.00852215 	-1.58293e-19 10.084 	0.00815333 	-1.87404e-19 10.0788 	0.00731596 	-1.88325e-19 10.0796 	0.00734438 	-1.96864e-19 10.077 	0.0069885 	-1.80348e-19 10.0744 	0.00663247 	-1.6383e-19 10.0718 	0.0062763 	-1.47308e-19 10.0673 	0.00566 	-1.16643e-19 10.0667 	0.00551509 	-9.5605e-20 10.0638 	0.00516047 	-7.13781e-20 10.061 	0.00480571 	-4.71524e-20 10.0581 	0.00445083 	-2.29279e-20 10.0543 	0.00400525 	7.08016e-22 10.0532 	0.00383102 	0 10.051 	0.00358292 	0 10.0488 	0.00333477 	0 10.0466 	0.00308657 	0 10.0444 	0.00284314 	0 10.0434 	0.00272713 	0 10.0424 	0.00261112 	0 10.0413 	0.0024951 	0 10.0403 	0.00237906 	0 10.0365 	0.00219212 	-1.35158e-22 10.0356 	0.00189272 	-2.30398e-20 10.032 	0.00151672 	-4.67086e-20 10.0284 	0.0011406 	-7.0376e-20 10.0248 	0.000764361 	-9.40421e-20 10.0093 	2.77388e-05 	-1.17561e-19 10.0168 	8.98687e-06 	-1.25034e-19 10.0129 	-0.000380017 	-1.27591e-19 10.0089 	-0.000769137 	-1.3015e-19 10.0049 	-0.00115838 	-1.32709e-19 9.97922 	-0.00226621 	-1.29462e-19 9.9957 	-0.0019547 	-1.18506e-19 9.99132 	-0.00235564 	-8.12118e-20 9.98694 	-0.00275671 	-4.3925e-20 9.98255 	-0.0031579 	-6.64574e-21 9.94633 	-0.00466751 	5.87352e-20 9.97197 	-0.00401014 	5.95446e-20 9.96716 	-0.0044222 	6.11637e-20 9.96234 	-0.0048344 	6.27809e-20 9.95753 	-0.00524673 	6.43964e-20 9.91059 	-0.00715796 	7.08867e-20 9.94546 	-0.00616556 	5.53172e-20 9.9402 	-0.00658747 	3.97459e-20 9.93494 	-0.00700955 	2.41736e-20 9.92967 	-0.00743178 	8.6003e-21 9.87208 	-0.00971864 	-2.25904e-21 9.91603 	-0.0084222 	-7.92342e-21 9.91031 	-0.00885364 	-2.26783e-20 9.90458 	-0.00928526 	-3.74322e-20 9.89885 	-0.00971706 	-5.21851e-20 9.83089 	-0.0123363 	-6.69673e-20 9.88356 	-0.0107805 	-6.28391e-20 9.87737 	-0.0112217 	-7.25847e-20 9.87117 	-0.0116631 	-8.23276e-20 9.86497 	-0.0121048 	-9.20677e-20 9.78714 	-0.015002 	-1.21356e-19 9.84798 	-0.0132397 	-2.21431e-19 9.84132 	-0.0136903 	-2.09381e-19 9.83465 	-0.0141411 	-1.97343e-19 9.82798 	-0.0145922 	-1.85317e-19 9.74101 	-0.0177036 	-5.53803e-20 9.80927 	-0.0157925 	-3.34644e-20 9.80214 	-0.0162525 	-2.29755e-20 9.79501 	-0.0167128 	-1.24858e-20 9.78787 	-0.0171734 	-1.99533e-21 9.69268 	-0.0204316 	0 9.76746 	-0.0184326 	0 9.75988 	-0.0189028 	0 9.75229 	-0.0193734 	0 9.74469 	-0.0198442 	0 9.64234 	-0.023181 	0 9.72263 	-0.0211556 	5.99345e-22 9.71461 	-0.0216365 	1.04246e-20 9.70658 	-0.0221178 	2.02491e-20 9.69848 	-0.022601 	3.00812e-20 9.5902 	-0.025944 	5.56043e-20 9.67133 	-0.0240502 	2.27813e-19 9.66645 	-0.0244463 	2.38174e-19 9.65799 	-0.024938 	2.41819e-19 9.64013 	-0.0256804 	2.28129e-19 9.53645 	-0.0287114 	5.58121e-20 9.6123 	-0.0271168 	3.05299e-20 9.61555 	-0.0273197 	1.96266e-20 9.60668 	-0.0278229 	1.11221e-20 9.57997 	-0.0287659 	7.90109e-21 9.48129 	-0.0314831 	2.6011e-20 9.55161 	-0.0301846 	1.38417e-19 9.56212 	-0.0302496 	1.67178e-19 9.55286 	-0.0307656 	1.68312e-19 9.51833 	-0.0318501 	1.31407e-19 9.42496 	-0.0342579 	5.93727e-21 9.48962 	-0.0332486 	-1.27653e-19 9.50645 	-0.0332297 	-1.84054e-19 9.49682 	-0.0337589 	-1.97797e-19 9.45555 	-0.0349241 	-1.70993e-19 9.36766 	-0.0370265 	-8.44793e-20 9.42661 	-0.0363049 	-2.35102e-19 9.44876 	-0.0362579 	-3.06566e-19 9.43879 	-0.0368004 	-3.08976e-19 9.39191 	-0.0379844 	-2.26729e-19 9.30958 	-0.0397848 	-6.32857e-20 9.36286 	-0.0393453 	-3.43101e-20 9.38935 	-0.0393246 	-1.34479e-20 9.37907 	-0.0398793 	-3.71359e-21 9.32769 	-0.0410218 	0 9.25093 	-0.0425281 	0 9.29867 	-0.0423491 	0 9.32853 	-0.0423987 	0 9.31795 	-0.0429654 	0 9.26317 	-0.0440179 	3.18086e-21 9.19188 	-0.0452527 	7.54693e-21 9.23429 	-0.0453191 	3.37843e-21 9.26661 	-0.0454828 	0 9.25576 	-0.0460634 	0 9.1986 	-0.0469803 	3.67564e-21 9.13264 	-0.0479622 	8.04734e-21 9.16996 	-0.048268 	3.87826e-21 9.20391 	-0.0485942 	6.17117e-22 9.19282 	-0.0491888 	9.46573e-21 9.13422 	-0.0499185 	3.28241e-20 9.07335 	-0.0506559 	5.68621e-20 9.10589 	-0.0511921 	2.18909e-19 9.13842 	-0.0517287 	3.80956e-19 9.12622 	-0.0523243 	3.81616e-19 9.07021 	-0.0528263 	2.19546e-19 9.01418 	-0.0533293 	5.74768e-20 9.04227 	-0.0540829 	3.3751e-20 9.07033 	-0.0548373 	1.00258e-20 9.05824 	-0.0554148 	7.96253e-22 9.00676 	-0.0556957 	4.97618e-21 8.95525 	-0.0559772 	9.15654e-21 8.97924 	-0.0569323 	5.18388e-21 9.00319 	-0.0578885 	1.2118e-21 8.9913 	-0.058444 	7.36594e-22 8.94401 	-0.0585198 	-4.66593e-21 8.89671 	-0.0585961 	-1.00697e-20 8.91694 	-0.0597352 	-6.579e-20 8.93713 	-0.0608756 	-1.21513e-19 8.92552 	-0.0614065 	-1.23755e-19 8.8821 	-0.0612953 	-7.28082e-20 8.83867 	-0.0611843 	-2.18621e-20 8.85549 	-0.0624884 	1.06481e-19 8.87227 	-0.0637939 	2.34819e-19 8.861 	-0.0642987 	2.46706e-19 8.82112 	-0.0640204 	1.3992e-19 8.78123 	-0.0637421 	3.3133e-20 8.79499 	-0.0651919 	1.86672e-20 8.8087 	-0.0666433 	4.19759e-21 8.79783 	-0.0671212 	-1.42678e-21 8.76115 	-0.0666957 	4.20545e-21 8.72448 	-0.0662701 	9.83828e-21 8.7355 	-0.0678455 	3.04632e-21 8.74646 	-0.0694227 	-3.75147e-21 8.73605 	-0.0698733 	-2.48686e-20 8.70228 	-0.0693219 	-8.90125e-20 8.66851 	-0.0687702 	-1.53158e-19 8.67709 	-0.0704525 	-3.22011e-19 8.68561 	-0.0721365 	-4.90857e-19 8.6757 	-0.0725604 	-4.69493e-19 8.64454 	-0.0719027 	-2.75705e-19 8.61339 	-0.0712447 	-8.19175e-20 8.61981 	-0.0730142 	7.69567e-20 8.62476 	-0.0746678 	2.22112e-19 8.61458 	-0.0750491 	2.18907e-19 8.58798 	-0.0744403 	1.16467e-19 8.55917 	-0.0736969 	5.69725e-22 8.56369 	-0.0755374 	-1.14389e-19 8.56495 	-0.0770567 	-2.06581e-19 8.55496 	-0.0774381 	-2.18522e-19 8.53263 	-0.0769417 	-1.48339e-19 8.50592 	-0.0761307 	-4.87695e-20 8.50876 	-0.0780243 	-3.4127e-20 8.50703 	-0.0793761 	-1.97217e-20 8.49721 	-0.0797593 	-5.73449e-21 8.47851 	-0.07941 	1.53858e-20 8.45367 	-0.0785514 	4.14655e-20 8.45504 	-0.0804857 	1.38348e-20 8.4509 	-0.0816475 	-3.73228e-21 8.44125 	-0.0820339 	-1.12064e-20 8.42562 	-0.0818568 	-7.10023e-21 8.40244 	-0.0809651 	1.16777e-20 8.40253 	-0.0829248 	-9.15418e-21 8.39648 	-0.0838779 	-2.19679e-20 8.38699 	-0.0842682 	-3.02986e-20 8.37396 	-0.084282 	-4.42314e-20 8.35226 	-0.0833731 	-7.18787e-20 8.35123 	-0.0853446 	6.67253e-20 8.34369 	-0.0860787 	9.8861e-20 8.33436 	-0.0864749 	1.01899e-19 8.32351 	-0.0866933 	8.83141e-20 8.30315 	-0.085784 	-3.04273e-20 8.30114 	-0.0877658 	8.64957e-20 8.29247 	-0.0882785 	9.84876e-20 8.28328 	-0.0886831 	1.02726e-19 8.27408 	-0.0890881 	1.06952e-19 8.2551 	-0.0882094 	1.15464e-20 8.25177 	-0.0900731 	-1.20273e-21 8.24274 	-0.0904863 	-8.24204e-22 8.23369 	-0.0908999 	-4.45718e-22 8.22463 	-0.0913139 	-6.72704e-23 8.20813 	-0.0906524 	2.06923e-20 8.20335 	-0.0922793 	0 8.19445 	-0.092702 	0 8.18553 	-0.093125 	0 8.1766 	-0.0935484 	0 8.16221 	-0.0931145 	1.67838e-20 8.1563 	-0.0944983 	0 8.14752 	-0.0949331 	0 8.13873 	-0.0953683 	0 8.12991 	-0.0958038 	0 8.11734 	-0.095607 	0 8.11055 	-0.0967541 	0 8.10188 	-0.0972046 	0 8.0932 	-0.0976554 	0 8.0845 	-0.0981065 	0 8.0735 	-0.0981463 	-8.18913e-21 8.06602 	-0.0990663 	0 8.05747 	-0.0995346 	0 8.04889 	-0.100003 	0 8.0403 	-0.100472 	0 8.03064 	-0.100743 	-8.12239e-21 8.02285 	-0.101437 	0 8.0146 	-0.101913 	0 8.00632 	-0.10239 	0 7.99802 	-0.102868 	0 7.99004 	-0.103326 	0 7.98977 	-0.103342 	0 7.98949 	-0.103357 	0 7.98922 	-0.103372 	0 7.98895 	-0.103388 	0 7.9887 	-0.103397 	0 7.98012 	-0.103914 	-1.21592e-20 7.97153 	-0.104427 	-2.43849e-20 7.96292 	-0.104939 	-3.66089e-20 7.95428 	-0.105452 	-4.88312e-20 7.94671 	-0.105762 	-6.10617e-20 7.93779 	-0.106481 	-5.79787e-20 7.92928 	-0.107016 	-5.71688e-20 7.92075 	-0.107552 	-5.63555e-20 7.9122 	-0.108088 	-5.55386e-20 7.90575 	-0.108232 	-5.92604e-20 7.89648 	-0.109146 	-4.60589e-20 7.88805 	-0.109706 	-3.28351e-20 7.87959 	-0.110266 	-1.96095e-20 7.87111 	-0.110827 	-6.38214e-21 7.86574 	-0.110814 	0 7.85613 	-0.111918 	-2.69602e-21 7.84777 	-0.112504 	-8.74853e-21 7.83937 	-0.11309 	-1.48001e-20 7.83096 	-0.113677 	-2.08507e-20 7.82663 	-0.113517 	-2.68419e-20 7.81668 	-0.114806 	-6.5735e-20 7.80837 	-0.115419 	-9.0587e-20 7.80004 	-0.116033 	-1.15441e-19 7.79167 	-0.116647 	-1.40297e-19 7.78834 	-0.116348 	-1.25477e-19 7.77805 	-0.117817 	-9.50127e-20 7.7698 	-0.118459 	-8.1006e-20 7.76151 	-0.119101 	-6.69911e-20 7.75348 	-0.119692 	-5.52207e-20 7.75083 	-0.119314 	-8.57892e-20 7.74049 	-0.120846 	-1.03433e-19 7.73199 	-0.121631 	-8.56054e-20 7.72375 	-0.122303 	-6.24256e-20 7.71676 	-0.122744 	-3.49006e-20 7.71402 	-0.122423 	6.92681e-21 7.70378 	-0.123962 	1.24395e-20 7.6949 	-0.124942 	1.00175e-20 7.68668 	-0.125646 	3.6829e-21 7.68071 	-0.125945 	0 7.67788 	-0.12568 	0 7.66771 	-0.12723 	0 7.65846 	-0.128401 	0 7.65026 	-0.129137 	0 7.64525 	-0.129301 	0 7.64232 	-0.129094 	0 7.63223 	-0.130656 	0 7.62261 	-0.132013 	-5.75085e-21 7.61442 	-0.132783 	-2.78575e-20 7.61034 	-0.132819 	-5.00424e-20 7.6073 	-0.13267 	-7.22483e-20 7.59727 	-0.134246 	-4.8267e-20 7.58728 	-0.135785 	-2.4021e-20 7.5791 	-0.13659 	5.18621e-21 7.5759 	-0.136505 	1.04665e-20 7.57275 	-0.136414 	1.55696e-20 7.56277 	-0.138007 	5.61722e-20 7.55274 	-0.139599 	9.67725e-20 7.54518 	-0.140399 	1.15425e-19 7.54189 	-0.140366 	9.68283e-20 7.53861 	-0.140333 	7.82304e-20 7.52869 	-0.141944 	4.82609e-20 7.5187 	-0.143555 	1.82799e-20 7.51167 	-0.144383 	4.56594e-21 7.50825 	-0.144408 	1.62203e-20 7.50484 	-0.144434 	2.78753e-20 7.49494 	-0.146066 	1.06772e-19 7.48499 	-0.147698 	1.85673e-19 7.47847 	-0.148556 	1.86509e-19 7.47492 	-0.148639 	1.08406e-19 7.47136 	-0.148722 	3.03005e-20 7.46149 	-0.150376 	1.96478e-20 7.45156 	-0.15203 	8.99991e-21 7.44553 	-0.15292 	9.13824e-21 7.44182 	-0.153062 	2.04883e-20 7.43811 	-0.153204 	3.18394e-20 7.42825 	-0.154881 	1.08765e-19 7.41843 	-0.156541 	1.83984e-19 7.4129 	-0.157432 	1.81249e-19 7.40892 	-0.157683 	1.10475e-19 7.40504 	-0.157885 	3.43768e-20 7.39519 	-0.159588 	2.4059e-20 7.38631 	-0.161106 	1.37119e-20 7.38068 	-0.16204 	3.26083e-21 7.37614 	-0.162512 	0 7.37211 	-0.162774 	0 7.36224 	-0.164503 	0 7.35427 	-0.165885 	0 7.34852 	-0.166863 	0 7.34345 	-0.167552 	0 7.33924 	-0.167875 	0 7.32935 	-0.169631 	0 7.32225 	-0.170882 	0 7.31639 	-0.171905 	0 7.31078 	-0.172807 	3.75427e-21 7.3064 	-0.173192 	2.34809e-20 7.29646 	-0.174977 	1.69809e-21 7.2902 	-0.176103 	9.83898e-21 7.28421 	-0.177172 	2.05124e-20 7.27818 	-0.178242 	3.11887e-20 7.27351 	-0.178733 	4.67645e-20 7.26416 	-0.180437 	1.3758e-19 7.25807 	-0.181553 	1.43158e-19 7.25195 	-0.18267 	1.48708e-19 7.24578 	-0.183787 	1.54231e-19 7.24054 	-0.184502 	6.92549e-20 7.23205 	-0.186075 	1.43519e-19 7.22582 	-0.18724 	1.28727e-19 7.21955 	-0.188405 	1.13907e-19 7.21324 	-0.18957 	9.90579e-20 7.20743 	-0.190504 	4.85312e-20 7.19977 	-0.191952 	4.39203e-20 7.19339 	-0.193166 	4.4525e-20 7.18696 	-0.19438 	4.51364e-20 7.18049 	-0.195594 	4.57543e-20 7.17413 	-0.196745 	5.1538e-20 7.17128 	-0.197291 	5.32699e-20 7.1688 	-0.197773 	5.20545e-20 7.1663 	-0.198255 	5.08361e-20 7.1638 	-0.198738 	4.96148e-20 7.16136 	-0.199207 	4.84217e-20 7.15715 	-0.19999 	4.77377e-20 7.15293 	-0.200772 	4.7051e-20 7.14868 	-0.201555 	4.63616e-20 7.14442 	-0.202337 	4.56696e-20 7.14099 	-0.203028 	4.83703e-20 7.13363 	-0.20443 	4.51857e-20 7.12671 	-0.205741 	3.70478e-20 7.11975 	-0.207052 	2.89206e-20 7.11273 	-0.208364 	2.08041e-20 7.10791 	-0.209437 	1.7756e-21 7.09956 	-0.211034 	-3.23208e-22 7.09246 	-0.212396 	-2.24681e-22 7.08531 	-0.213758 	-1.26117e-22 7.0781 	-0.21512 	-2.75172e-23 7.07448 	-0.2161 	0 7.06512 	-0.217891 	-3.20999e-21 7.05782 	-0.219303 	-2.02317e-20 7.05046 	-0.220716 	-3.72457e-20 7.0431 	-0.222124 	-5.4216e-20 7.04063 	-0.223019 	-6.65568e-20 7.0306 	-0.224938 	-5.1538e-20 7.02273 	-0.226465 	-3.31781e-20 7.01517 	-0.227929 	-1.42726e-20 7.00904 	-0.229239 	1.66291e-21 7.00634 	-0.230194 	1.06973e-20 6.99611 	-0.232155 	2.8411e-21 6.98715 	-0.233883 	8.10797e-21 6.97937 	-0.235397 	2.53401e-20 6.97449 	-0.236611 	4.79201e-20 6.97152 	-0.237626 	7.4043e-20 6.96109 	-0.23963 	4.67958e-20 6.95102 	-0.241558 	2.09756e-20 6.943 	-0.243123 	1.97315e-21 6.93936 	-0.244242 	-3.50355e-21 6.93613 	-0.245317 	-7.63561e-21 6.92548 	-0.247363 	-7.14845e-20 6.91475 	-0.24941 	-1.35335e-19 6.90709 	-0.250998 	-1.38766e-19 6.90362 	-0.252131 	-8.85687e-20 6.90011 	-0.253264 	-3.83716e-20 6.88922 	-0.255353 	-8.9457e-20 6.87826 	-0.257442 	-1.40553e-19 6.87096 	-0.259085 	-1.39411e-19 6.8672 	-0.260276 	-8.58954e-20 6.8634 	-0.261466 	-3.23783e-20 6.85227 	-0.263598 	-8.62305e-20 6.84107 	-0.265729 	-1.40091e-19 6.83411 	-0.267428 	-1.33476e-19 6.83005 	-0.268675 	-7.27117e-20 6.82594 	-0.269922 	-1.19414e-20 6.81456 	-0.272096 	-8.50672e-21 6.80416 	-0.274167 	-5.00685e-21 6.79734 	-0.275884 	-1.27344e-21 6.79211 	-0.277327 	0 6.78768 	-0.278629 	0 6.77604 	-0.280844 	0 6.767 	-0.2828 	0 6.75988 	-0.284564 	0 6.75332 	-0.286226 	0 6.74857 	-0.287582 	0 6.73664 	-0.289837 	0 6.72898 	-0.291678 	-3.6875e-21 6.72155 	-0.293488 	-7.63724e-21 6.71406 	-0.295298 	-1.1589e-20 6.70853 	-0.296777 	-3.87201e-21 6.69771 	-0.298939 	-5.32609e-20 6.69003 	-0.300795 	-4.91201e-20 6.68229 	-0.30265 	-4.49486e-20 6.67448 	-0.304504 	-4.07466e-20 6.66753 	-0.306208 	-1.17215e-20 6.65941 	-0.307939 	-1.03855e-20 6.65271 	-0.309531 	-1.18904e-21 6.64596 	-0.311122 	8.00873e-21 6.63916 	-0.312713 	1.72078e-20 6.63275 	-0.314203 	2.5827e-20 6.63124 	-0.314529 	2.76186e-20 6.62973 	-0.314855 	2.94101e-20 6.62822 	-0.315181 	3.12015e-20 6.62671 	-0.315507 	3.29929e-20 6.62541 	-0.315807 	3.44808e-20 6.61649 	-0.31777 	3.55516e-20 6.6076 	-0.319704 	3.74075e-20 6.59864 	-0.321637 	3.92515e-20 6.5896 	-0.32357 	4.10834e-20 6.582 	-0.325327 	5.04625e-20 6.57204 	-0.327496 	5.50938e-20 6.56276 	-0.329468 	5.23709e-20 6.55341 	-0.33144 	4.96552e-20 6.54398 	-0.333412 	4.69468e-20 6.5373 	-0.335059 	2.08892e-20 6.52643 	-0.337392 	4.55156e-20 6.51658 	-0.339442 	4.2023e-20 6.50682 	-0.341449 	3.44244e-20 6.49813 	-0.343326 	1.60345e-20 6.49126 	-0.344987 	-2.03185e-20 6.47997 	-0.347349 	-1.12832e-20 6.469 	-0.349609 	-5.86716e-21 6.45881 	-0.351649 	-8.25335e-21 6.4511 	-0.353402 	-8.00317e-21 6.44382 	-0.355098 	-7.22404e-21 6.4321 	-0.357487 	-5.41253e-21 6.42029 	-0.359875 	-3.5896e-21 6.41026 	-0.361924 	2.04815e-21 6.40261 	-0.363652 	8.74308e-21 6.3949 	-0.365381 	1.54435e-20 6.38274 	-0.367793 	1.00568e-20 6.37048 	-0.370205 	4.67602e-21 6.36071 	-0.372307 	0 6.35262 	-0.374064 	0 6.34445 	-0.375821 	0 6.33184 	-0.378253 	0 6.32001 	-0.380588 	0 6.31025 	-0.382685 	0 6.30105 	-0.384622 	0 6.29242 	-0.386403 	0 6.27934 	-0.388852 	0 6.2686 	-0.391033 	4.76793e-21 6.25837 	-0.393148 	1.06847e-20 6.24806 	-0.395263 	1.66058e-20 6.23875 	-0.397111 	2.25476e-20 6.22619 	-0.399463 	1.98247e-20 6.21557 	-0.401592 	2.0961e-20 6.20486 	-0.403721 	2.21065e-20 6.19406 	-0.405849 	2.32612e-20 6.18338 	-0.407926 	2.47968e-20 6.18048 	-0.408455 	2.11287e-20 6.17796 	-0.408942 	1.93964e-20 6.17544 	-0.40943 	1.76653e-20 6.17291 	-0.409917 	1.59351e-20 6.17042 	-0.410396 	1.42358e-20 6.16218 	-0.412052 	8.1757e-21 6.15388 	-0.413707 	2.12629e-21 6.14554 	-0.415362 	-3.91236e-21 6.13714 	-0.417016 	-9.94022e-21 6.12888 	-0.418531 	-2.2002e-20 6.11818 	-0.420849 	-4.08715e-20 6.10703 	-0.422994 	-4.02705e-20 6.09579 	-0.425139 	-3.97004e-20 6.08446 	-0.427283 	-3.91614e-20 6.07348 	-0.429104 	-1.0899e-20 6.0626 	-0.43157 	3.57861e-20 6.05111 	-0.433791 	4.82285e-20 6.03936 	-0.435934 	4.96437e-20 6.02775 	-0.437898 	2.21837e-20 6.01626 	-0.439707 	-3.0881e-20 6.00487 	-0.442163 	-9.1449e-20 5.99337 	-0.444615 	-1.51639e-19 5.98114 	-0.446713 	-1.54954e-19 5.96919 	-0.448513 	-7.96715e-20 5.95716 	-0.450313 	-4.34683e-21 5.94525 	-0.452753 	-9.79529e-22 5.93323 	-0.455192 	2.40632e-21 5.92124 	-0.457324 	1.02685e-20 5.90874 	-0.459109 	2.47198e-20 5.89616 	-0.460894 	3.91882e-20 5.8837 	-0.463313 	6.21833e-20 5.87127 	-0.465625 	7.72728e-20 5.859 	-0.467708 	7.52818e-20 5.84635 	-0.469659 	6.57976e-20 5.8332 	-0.471423 	4.56598e-20 5.8202 	-0.473813 	3.56126e-20 5.80745 	-0.475887 	4.23622e-20 5.79462 	-0.477941 	5.01369e-20 5.78169 	-0.479994 	5.79398e-20 5.76827 	-0.481869 	7.52779e-20 5.75972 	-0.483294 	8.9789e-20 5.75127 	-0.484579 	8.3983e-20 5.74279 	-0.485864 	7.81625e-20 5.73426 	-0.487149 	7.23275e-20 5.72608 	-0.488376 	6.6739e-20 5.72128 	-0.489126 	6.38161e-20 5.71647 	-0.489876 	6.08895e-20 5.71164 	-0.490626 	5.79592e-20 5.7068 	-0.491375 	5.50251e-20 5.70209 	-0.492047 	5.02993e-20 5.68898 	-0.494142 	1.6849e-20 5.67562 	-0.496133 	-7.86629e-21 5.66216 	-0.498124 	-3.26483e-20 5.6486 	-0.500114 	-5.749