# vtk DataFile Version 2.0
track0
ASCII
DATASET POLYDATA
POINTS 10920 double
-0.0205 0.001 1e-05
-0.0202034 0.00100022 1e-05
-0.0199069 0.00100067 1e-05
-0.0196103 0.00100132 1e-05
-0.0193137 0.00100216 1e-05
-0.0190172 0.0010032 1e-05
-0.0187132 0.00100461 1e-05
-0.0184093 0.00100572 1e-05
-0.0181054 0.00100681 1e-05
-0.0178015 0.00100785 1e-05
-0.0174976 0.00100886 1e-05
-0.0172058 0.00101001 1e-05
-0.016914 0.00101082 1e-05
-0.0166222 0.0010116 1e-05
-0.0163305 0.00101236 1e-05
-0.0160387 0.00101308 1e-05
-0.0157586 0.00101395 1e-05
-0.0154784 0.00101463 1e-05
-0.0151983 0.00101536 1e-05
-0.0149182 0.00101612 1e-05
-0.0146381 0.00101692 1e-05
-0.0143692 0.00101784 1e-05
-0.0141002 0.00101869 1e-05
-0.0138313 0.0010196 1e-05
-0.0135624 0.00102056 1e-05
-0.0132934 0.00102157 1e-05
-0.0130397 0.00102262 1e-05
-0.0127859 0.00102366 1e-05
-0.0125321 0.00102474 1e-05
-0.0122784 0.00102585 1e-05
-0.012066 0.00102682 1e-05
-0.0120533 0.00102688 1e-05
-0.0120406 0.00102694 1e-05
-0.0120279 0.00102699 1e-05
-0.0120152 0.00102705 1e-05
-0.0120025 0.00102711 1e-05
-0.0117547 0.00102828 1e-05
-0.0115068 0.00102947 1e-05
-0.0112589 0.00103068 1e-05
-0.0110111 0.00103192 1e-05
-0.0107632 0.00103318 1e-05
-0.0105252 0.0010344 1e-05
-0.0102873 0.00103565 1e-05
-0.0100493 0.00103691 1e-05
-0.00981133 0.00103819 1e-05
-0.00957337 0.00103948 1e-05
-0.00934491 0.00104071 1e-05
-0.00911645 0.00104197 1e-05
-0.008888 0.00104324 1e-05
-0.00865954 0.00104451 1e-05
-0.00843108 0.00104579 1e-05
-0.00821175 0.00104701 1e-05
-0.00799242 0.00104825 1e-05
-0.00777309 0.00104949 1e-05
-0.00755376 0.00105073 1e-05
-0.00733443 0.00105198 1e-05
-0.00712387 0.00105316 1e-05
-0.0069133 0.00105436 1e-05
-0.00670273 0.00105555 1e-05
-0.00649217 0.00105675 1e-05
-0.0062816 0.00105795 1e-05
-0.00607944 0.00105908 1e-05
-0.00587729 0.00106022 1e-05
-0.00567514 0.00106136 1e-05
-0.00547298 0.0010625 1e-05
-0.00527083 0.00106363 1e-05
-0.00507675 0.0010647 1e-05
-0.00488267 0.00106578 1e-05
-0.0046886 0.00106686 1e-05
-0.00449452 0.00106793 1e-05
-0.00430044 0.001069 1e-05
-0.00411412 0.00107001 1e-05
-0.0039278 0.00107102 1e-05
-0.00374147 0.00107203 1e-05
-0.00355515 0.00107303 1e-05
-0.00336883 0.00107403 1e-05
-0.00318995 0.00107497 1e-05
-0.00301107 0.00107591 1e-05
-0.00283219 0.00107685 1e-05
-0.00265331 0.00107778 1e-05
-0.00247443 0.0010787 1e-05
-0.0023027 0.00107956 1e-05
-0.00213097 0.00108043 1e-05
-0.00195924 0.00108129 1e-05
-0.0017875 0.00108214 1e-05
-0.00161577 0.00108298 1e-05
-0.0014509 0.00108377 1e-05
-0.00128603 0.00108455 1e-05
-0.00112116 0.00108532 1e-05
-0.000956289 0.00108608 1e-05
-0.000791418 0.00108683 1e-05
-0.000633135 0.00108751 1e-05
-0.000474851 0.00108819 1e-05
-0.000316567 0.00108885 1e-05
-0.000158283 0.00108949 1e-05
0 0.00109011 1e-05
0.000105677 0.0010905 1e-05
0.000211355 0.00109089 1e-05
0.000317032 0.00109126 1e-05
0.00042271 0.00109162 1e-05
0.000528387 0.00109197 1e-05
0.000634886 0.00109231 1e-05
0.000741385 0.00109264 1e-05
0.000847885 0.00109296 1e-05
0.000954384 0.00109327 1e-05
0.00106088 0.00109358 1e-05
0.00116821 0.00109387 1e-05
0.00127554 0.00109416 1e-05
0.00138286 0.00109444 1e-05
0.00149019 0.00109471 1e-05
0.00159752 0.00109497 1e-05
0.00170568 0.00109521 1e-05
0.00181384 0.00109546 1e-05
0.001922 0.0010957 1e-05
0.00203016 0.00109593 1e-05
0.00213833 0.00109615 1e-05
0.00224733 0.00109635 1e-05
0.00235633 0.00109655 1e-05
0.00246533 0.00109675 1e-05
0.00257434 0.00109694 1e-05
0.00268334 0.00109712 1e-05
0.00279319 0.00109729 1e-05
0.00290304 0.00109746 1e-05
0.00301289 0.00109763 1e-05
0.00312274 0.00109779 1e-05
0.00323259 0.00109795 1e-05
0.00334329 0.00109809 1e-05
0.003454 0.00109823 1e-05
0.0035647 0.00109837 1e-05
0.0036754 0.00109851 1e-05
0.00378611 0.00109864 1e-05
0.00389767 0.00109876 1e-05
0.00400924 0.00109889 1e-05
0.0041208 0.00109901 1e-05
0.00423237 0.00109913 1e-05
0.00434393 0.00109924 1e-05
0.00445636 0.00109934 1e-05
0.00456879 0.00109944 1e-05
0.00468123 0.00109954 1e-05
0.00479366 0.00109963 1e-05
0.00490609 0.00109973 1e-05
0.0050194 0.00109981 1e-05
0.0051327 0.00109989 1e-05
0.00524601 0.00109997 1e-05
0.00535931 0.00110004 1e-05
0.00547262 0.00110011 1e-05
0.00558681 0.00110018 1e-05
0.005701 0.00110024 1e-05
0.00581518 0.0011003 1e-05
0.00592937 0.00110035 1e-05
0.00604356 0.0011004 1e-05
0.00612233 0.00110044 1e-05
0.00620111 0.00110047 1e-05
0.00627988 0.00110049 1e-05
0.00635865 0.00110052 1e-05
0.0064359 0.00110054 1e-05
0.0064725 0.00110055 1e-05
0.00650911 0.00110056 1e-05
0.00654572 0.00110057 1e-05
0.00658232 0.00110058 1e-05
0.00661893 0.00110059 1e-05
0.0067349 0.00110062 1e-05
0.00685087 0.00110064 1e-05
0.00696684 0.00110066 1e-05
0.00708281 0.00110067 1e-05
0.00719878 0.00110068 1e-05
0.00731565 0.00110068 1e-05
0.00743252 0.00110068 1e-05
0.00754939 0.00110067 1e-05
0.00766626 0.00110067 1e-05
0.00778313 0.00110065 1e-05
0.00790091 0.00110063 1e-05
0.00801869 0.0011006 1e-05
0.00813647 0.00110057 1e-05
0.00825425 0.00110054 1e-05
0.00837203 0.0011005 1e-05
0.00849073 0.00110045 1e-05
0.00860942 0.0011004 1e-05
0.00872812 0.00110035 1e-05
0.00884682 0.00110029 1e-05
0.00896551 0.00110023 1e-05
0.00908513 0.00110014 1e-05
0.00920475 0.00110007 1e-05
0.00932437 0.00109999 1e-05
0.00944398 0.0010999 1e-05
0.0095636 0.00109981 1e-05
0.00968415 0.0010997 1e-05
0.0098047 0.00109959 1e-05
0.00992525 0.00109949 1e-05
0.0100458 0.00109937 1e-05
0.0101663 0.00109925 1e-05
0.0102878 0.0010991 1e-05
0.0104093 0.00109897 1e-05
0.0105308 0.00109883 1e-05
0.0106523 0.00109869 1e-05
0.0107738 0.00109854 1e-05
0.0108962 0.00109835 1e-05
0.0110186 0.00109819 1e-05
0.0111411 0.00109802 1e-05
0.0112635 0.00109784 1e-05
0.0113859 0.00109766 1e-05
0.0115093 0.00109743 1e-05
0.0116327 0.00109724 1e-05
0.0117561 0.00109703 1e-05
0.0118795 0.00109682 1e-05
0.0120028 0.0010966 1e-05
0.0121272 0.00109634 1e-05
0.0122515 0.00109611 1e-05
0.0123759 0.00109587 1e-05
0.0125002 0.00109562 1e-05
0.0126245 0.00109537 1e-05
0.0127498 0.00109507 1e-05
0.0128752 0.00109479 1e-05
0.0130005 0.00109451 1e-05
0.0131258 0.00109423 1e-05
0.0132511 0.00109394 1e-05
0.0133774 0.00109359 1e-05
0.0135036 0.00109328 1e-05
0.0136299 0.00109296 1e-05
0.0137562 0.00109263 1e-05
0.0138825 0.0010923 1e-05
0.0140098 0.00109192 1e-05
0.014137 0.00109156 1e-05
0.0142643 0.00109119 1e-05
0.0143915 0.00109083 1e-05
0.0145188 0.00109044 1e-05
0.0146471 0.00109002 1e-05
0.0147753 0.00108961 1e-05
0.0149036 0.00108921 1e-05
0.0150318 0.00108879 1e-05
0.0151601 0.00108836 1e-05
0.0152893 0.00108789 1e-05
0.0154186 0.00108744 1e-05
0.0155478 0.00108699 1e-05
0.0156771 0.00108653 1e-05
0.0158063 0.00108605 1e-05
0.0159366 0.00108554 1e-05
0.0160668 0.00108504 1e-05
0.0161971 0.00108454 1e-05
0.0163274 0.00108403 1e-05
0.0164576 0.0010835 1e-05
0.0165889 0.00108294 1e-05
0.0167201 0.00108239 1e-05
0.0168514 0.00108184 1e-05
0.0169827 0.00108128 1e-05
0.0171139 0.0010807 1e-05
0.0172462 0.0010801 1e-05
0.0173785 0.00107949 1e-05
0.0175108 0.00107889 1e-05
0.0176431 0.00107828 1e-05
0.0177754 0.00107765 1e-05
0.0179087 0.001077 1e-05
0.018042 0.00107634 1e-05
0.0181753 0.00107569 1e-05
0.0183087 0.00107503 1e-05
0.018442 0.00107434 1e-05
0.0185763 0.00107364 1e-05
0.0187107 0.00107293 1e-05
0.018845 0.00107222 1e-05
0.0189794 0.0010715 1e-05
0.0191137 0.00107077 1e-05
0.0192491 0.00107001 1e-05
0.0193845 0.00106925 1e-05
0.0195199 0.00106849 1e-05
0.0196553 0.00106771 1e-05
0.0197907 0.00106692 1e-05
0.0199272 0.00106611 1e-05
0.0200636 0.0010653 1e-05
0.0202001 0.00106447 1e-05
0.0203365 0.00106364 1e-05
0.020473 0.00106279 1e-05
0.0206105 0.00106193 1e-05
0.020748 0.00106106 1e-05
0.0208855 0.00106018 1e-05
0.021023 0.00105928 1e-05
0.0211606 0.00105839 1e-05
0.0212991 0.00105747 1e-05
0.0214377 0.00105654 1e-05
0.0215763 0.0010556 1e-05
0.0217149 0.00105465 1e-05
0.0218535 0.00105369 1e-05
0.0219931 0.00105272 1e-05
0.0221328 0.00105174 1e-05
0.0222724 0.00105073 1e-05
0.0224121 0.00104972 1e-05
0.0225517 0.00104871 1e-05
0.0226925 0.00104769 1e-05
0.0228332 0.00104664 1e-05
0.022974 0.00104558 1e-05
0.0231147 0.0010445 1e-05
0.0232555 0.00104343 1e-05
0.0233973 0.00104235 1e-05
0.0235391 0.00104125 1e-05
0.023681 0.00104013 1e-05
0.0238228 0.00103899 1e-05
0.0239647 0.00103786 1e-05
0.0241076 0.00103673 1e-05
0.0242505 0.00103557 1e-05
0.0243935 0.00103438 1e-05
0.0245364 0.00103319 1e-05
0.0246794 0.001032 1e-05
0.0248234 0.0010308 1e-05
0.0249675 0.00102958 1e-05
0.0251115 0.00102834 1e-05
0.0252556 0.00102708 1e-05
0.0253996 0.00102583 1e-05
0.0255448 0.00102458 1e-05
0.02569 0.0010233 1e-05
0.0258351 0.001022 1e-05
0.0259803 0.00102068 1e-05
0.0261255 0.00101937 1e-05
0.0262718 0.00101806 1e-05
0.0264181 0.00101672 1e-05
0.0265644 0.00101536 1e-05
0.0267107 0.00101398 1e-05
0.026857 0.00101261 1e-05
0.0270044 0.00101124 1e-05
0.0271519 0.00100984 1e-05
0.0272993 0.00100842 1e-05
0.0274468 0.00100698 1e-05
0.0275942 0.00100555 1e-05
0.0277428 0.00100412 1e-05
0.0278914 0.00100265 1e-05
0.0280399 0.00100117 1e-05
0.0281885 0.000999676 1e-05
0.0283371 0.000998181 1e-05
0.0284869 0.000996686 1e-05
0.0286366 0.000995156 1e-05
0.0287863 0.000993611 1e-05
0.0289361 0.000992057 1e-05
0.0290858 0.000990498 1e-05
0.0292367 0.000988938 1e-05
0.0293876 0.000987343 1e-05
0.0295385 0.000985736 1e-05
0.0296894 0.000984121 1e-05
0.0298403 0.000982496 1e-05
0.0299924 0.000980871 1e-05
0.0301445 0.000979211 1e-05
0.0302966 0.000977542 1e-05
0.0304486 0.000975863 1e-05
0.0306007 0.000974174 1e-05
0.030754 0.000972482 1e-05
0.0309072 0.000970758 1e-05
0.0310605 0.000969024 1e-05
0.0312138 0.00096728 1e-05
0.031367 0.000965527 1e-05
0.0315215 0.000963765 1e-05
0.0316759 0.000961975 1e-05
0.0318304 0.000960176 1e-05
0.0319848 0.000958366 1e-05
0.0321393 0.000956546 1e-05
0.0322949 0.000954712 1e-05
0.0324506 0.000952856 1e-05
0.0326062 0.000950988 1e-05
0.0327619 0.00094911 1e-05
0.0329175 0.000947221 1e-05
0.0330744 0.000945314 1e-05
0.0332313 0.000943388 1e-05
0.0333881 0.00094145 1e-05
0.033545 0.000939501 1e-05
[...]
POINT_DATA 10920
 FIELD attributes 2
p 1 10920 float
-6.0919 -6.08742 -6.07989 -6.07228 -6.06458 -6.05224 -6.0586 -6.07017 -6.08174 -6.09331 -6.11877 -6.13842 -6.17116 -6.2039 -6.23664 -6.27621 -6.29066 -6.31628 -6.34191 -6.36755 -6.39841 -6.41733 -6.44237 -6.46742 -6.49249 -6.5201 -6.54347 -6.56888 -6.59431 -6.61974 -6.64104 -6.64231 -6.64358 -6.64485 -6.64612 -6.64736 -6.67026 -6.69314 -6.71603 -6.73892 -6.76095 -6.78068 -6.79986 -6.81904 -6.83822 -6.85604 -6.87381 -6.89075 -6.90769 -6.92463 -6.94002 -6.95672 -6.97243 -6.98815 -7.00386 -7.01796 -7.03383 -7.04862 -7.06342 -7.07822 -7.09142 -7.10654 -7.12063 -7.13471 -7.14879 -7.16139 -7.17597 -7.18962 -7.20327 -7.21692 -7.22925 -7.24355 -7.25709 -7.27063 -7.28417 -7.29656 -7.31084 -7.32454 -7.33824 -7.35194 -7.36459 -7.37907 -7.39332 -7.40758 -7.42183 -7.43507 -7.44983 -7.4646 -7.47938 -7.49415 -7.50747 -7.52069 -7.53307 -7.54546 -7.55784 -7.56796 -7.5756 -7.58143 -7.58727 -7.59311 -7.59752 -7.60096 -7.60228 -7.6036 -7.60492 -7.60551 -7.60757 -7.60872 -7.60988 -7.61104 -7.61219 -7.61626 -7.61856 -7.62086 -7.62316 -7.62425 -7.62883 -7.63057 -7.63232 -7.63406 -7.63359 -7.63734 -7.63844 -7.63955 -7.64065 -7.63954 -7.64268 -7.64384 -7.645 -7.64616 -7.64555 -7.64821 -7.64947 -7.65072 -7.65197 -7.65199 -7.65396 -7.65499 -7.65602 -7.65705 -7.65734 -7.6586 -7.65933 -7.66006 -7.66079 -7.66118 -7.662 -7.66258 -7.66317 -7.66376 -7.66425 -7.6647 -7.66508 -7.66547 -7.66586 -7.66623 -7.66641 -7.66659 -7.66677 -7.66695 -7.66712 -7.6677 -7.66827 -7.66883 -7.66939 -7.66987 -7.67053 -7.6711 -7.67168 -7.67225 -7.67273 -7.67342 -7.67404 -7.67467 -7.6753 -7.67592 -7.67654 -7.67725 -7.67795 -7.67866 -7.67958 -7.68002 -7.68082 -7.68162 -7.68241 -7.68377 -7.68391 -7.6848 -7.68569 -7.68658 -7.68849 -7.68822 -7.68921 -7.6902 -7.69118 -7.69379 -7.69301 -7.6941 -7.69519 -7.69628 -7.69966 -7.69832 -7.69952 -7.70071 -7.70191 -7.70613 -7.7042 -7.70551 -7.70682 -7.70813 -7.71323 -7.71069 -7.71211 -7.71353 -7.71496 -7.72093 -7.71796 -7.71933 -7.72087 -7.7229 -7.72931 -7.72631 -7.72734 -7.72904 -7.73174 -7.73848 -7.73561 -7.73628 -7.73813 -7.74149 -7.74839 -7.74569 -7.746 -7.74796 -7.75194 -7.7589 -7.75641 -7.75637 -7.75845 -7.76304 -7.77003 -7.76786 -7.76754 -7.76977 -7.77494 -7.78192 -7.78018 -7.7797 -7.78208 -7.78772 -7.79457 -7.79329 -7.79273 -7.79524 -7.80123 -7.80787 -7.80703 -7.80643 -7.80907 -7.81532 -7.82174 -7.82135 -7.82096 -7.8238 -7.82999 -7.83618 -7.83624 -7.83631 -7.83927 -7.84522 -7.85117 -7.85168 -7.85219 -7.85528 -7.86099 -7.8667 -7.86764 -7.86859 -7.87178 -7.87726 -7.88274 -7.8841 -7.88547 -7.88877 -7.89403 -7.8993 -7.90105 -7.90281 -7.90621 -7.91128 -7.91634 -7.91845 -7.92057 -7.92408 -7.92896 -7.93384 -7.93629 -7.93874 -7.94234 -7.94706 -7.95178 -7.95453 -7.95736 -7.96107 -7.96555 -7.97014 -7.97315 -7.97634 -7.98012 -7.98441 -7.98889 -7.99214 -7.9956 -7.99945 -8.00362 -8.00801 -8.01146 -8.01514 -8.01906 -8.02315 -8.02748 -8.0311 -8.03494 -8.03892 -8.04298 -8.04726 -8.05103 -8.055 -8.05902 -8.06308 -8.06735 -8.07127 -8.07533 -8.0794 -8.08347 -8.0877 -8.09177 -8.09588 -8.09999 -8.10411 -8.10828 -8.11244 -8.11658 -8.12072 -8.12487 -8.129 -8.1332 -8.13736 -8.14152 -8.14568 -8.14981 -8.154 -8.15817 -8.16233 -8.1665 -8.17063 -8.17481 -8.17897 -8.18312 -8.18728 -8.19142 -8.19547 -8.19952 -8.20356 -8.2076 -8.21148 -8.21161 -8.21174 -8.21187 -8.212 -8.21213 -8.21624 -8.22036 -8.22448 -8.22859 -8.23275 -8.2368 -8.24087 -8.24494 -8.24902 -8.25316 -8.25713 -8.26115 -8.26517 -8.26918 -8.27329 -8.27719 -8.28113 -8.28508 -8.28903 -8.29307 -8.29689 -8.30075 -8.30461 -8.30846 -8.31242 -8.31616 -8.31991 -8.32366 -8.32742 -8.33126 -8.3349 -8.33853 -8.34216 -8.3458 -8.3495 -8.35302 -8.35652 -8.36 -8.36351 -8.36704 -8.37042 -8.37377 -8.3771 -8.38043 -8.38378 -8.387 -8.3902 -8.39334 -8.39648 -8.39962 -8.40266 -8.40569 -8.40863 -8.41154 -8.41444 -8.41727 -8.4201 -8.42281 -8.42546 -8.4281 -8.43069 -8.43327 -8.43574 -8.43811 -8.44047 -8.44279 -8.44511 -8.44732 -8.44939 -8.45146 -8.45349 -8.45553 -8.45745 -8.45919 -8.46093 -8.46264 -8.46435 -8.46595 -8.46735 -8.46873 -8.4701 -8.47143 -8.47266 -8.47374 -8.47475 -8.47574 -8.47667 -8.47751 -8.47824 -8.47884 -8.47944 -8.47991 -8.48033 -8.48069 -8.48084 -8.481 -8.48097 -8.48092 -8.48088 -8.48055 -8.4802 -8.47965 -8.47911 -8.47856 -8.47781 -8.47688 -8.4758 -8.47472 -8.47364 -8.47243 -8.47088 -8.46922 -8.46758 -8.46593 -8.46425 -8.46341 -8.46255 -8.46169 -8.46083 -8.45999 -8.45862 -8.45725 -8.45589 -8.45453 -8.4531 -8.45033 -8.44748 -8.44463 -8.44179 -8.43876 -8.43548 -8.43195 -8.42842 -8.4249 -8.42104 -8.41722 -8.41296 -8.40872 -8.40447 -8.39973 -8.39527 -8.39033 -8.38532 -8.38016 -8.37462 -8.36938 -8.36385 -8.35803 -8.35188 -8.3455 -8.33945 -8.3333 -8.32664 -8.31943 -8.31217 -8.30526 -8.29835 -8.29079 -8.2826 -8.27442 -8.2666 -8.25879 -8.25032 -8.24117 -8.23202 -8.22326 -8.2145 -8.20508 -8.19491 -8.18475 -8.17499 -8.16508 -8.15458 -8.14361 -8.13239 -8.1216 -8.11036 -8.09878 -8.08703 -8.07471 -8.06284 -8.0502 -8.03751 -8.02482 -8.0115 -7.99824 -7.98438 -7.97052 -7.95667 -7.94253 -7.93018 -7.91755 -7.90492 -7.8923 -7.88048 -7.87791 -7.87535 -7.87278 -7.87021 -7.86759 -7.8515 -7.83535 -7.81922 -7.80309 -7.78658 -7.76957 -7.75215 -7.73475 -7.71735 -7.69918 -7.68117 -7.66253 -7.64382 -7.62478 -7.60521 -7.58586 -7.56629 -7.54623 -7.52542 -7.50447 -7.48375 -7.46304 -7.44151 -7.41914 -7.39677 -7.37464 -7.35253 -7.32956 -7.30574 -7.28192 -7.25836 -7.23452 -7.20999 -7.18508 -7.15979 -7.13477 -7.10893 -7.0829 -7.05689 -7.03023 -7.00337 -6.97582 -6.94829 -6.92076 -6.89311 -6.88662 -6.87999 -6.87335 -6.86673 -6.86021 -6.83784 -6.81548 -6.79312 -6.77077 -6.7481 -6.71789 -6.68741 -6.65694 -6.62648 -6.59525 -6.56374 -6.53185 -6.49984 -6.46741 -6.43459 -6.40153 -6.36848 -6.33483 -6.30045 -6.26608 -6.23145 -6.19684 -6.16155 -6.12562 -6.08969 -6.05351 -6.01708 -5.98009 -5.94292 -5.90545 -5.86772 -5.82923 -5.79071 -5.7522 -5.71342 -5.68826 -5.66277 -5.63728 -5.6118 -5.58747 -5.57274 -5.55801 -5.54328 -5.52856 -5.51363 -5.47238 -5.43099 -5.38962 -5.34826 -5.30612 -5.26372 -5.22098 -5.17815 -5.13488 -5.09122 -5.04737 -5.00354 -4.95918 -4.91415 -4.8691 -4.82386 -4.77863 -4.7327 -4.68639 -4.64002 -4.59343 -4.54638 -4.49909 -4.45182 -4.40424 -4.36493 -4.32522 -4.28551 -4.24582 -4.20824 -4.19902 -4.18979 -4.18057 -4.17135 -4.16203 -4.11248 -4.06289 -4.01331 -3.96375 -3.91356 -3.86312 -3.81251 -3.76184 -3.71078 -3.65948 -3.60798 -3.5565 -3.50467 -3.45246 -3.40022 -3.34776 -3.29521 -3.2423 -3.18933 -3.13625 -3.08293 -3.02921 -2.97551 -2.92182 -2.86809 -2.85813 -2.84812 -2.8381 -2.82809 -2.81819 -2.7738 -2.72942 -2.68506 -2.6407 -2.59607 -2.54112 -2.48618 -2.43125 -2.37618 -2.32093 -2.26546 -2.21001 -2.15453 -2.09892 -2.04328 -1.9874 -1.93151 -1.87551 -1.81957 -1.76366 -1.70748 -1.65126 -1.59506 -1.53886 -1.48264 -1.48172 -1.48079 -1.47986 -1.47894 -1.47801 -1.42251 -1.36703 -1.31155 -1.25609 -1.20056 -1.14391 -1.08741 -1.03101 -0.974661 -0.918286 -0.861688 -0.805103 -0.748681 -0.692534 -0.636354 -0.579928 -0.523635 -0.467435 -0.411246 -0.35528 -0.327625 -0.300101 -0.272579 -0.245059 -0.218042 -0.189498 -0.160957 -0.132419 -0.103882 -0.0754273 -0.0194908 0.0361535 0.0917894 0.147317 0.202723 0.25829 0.313848 0.36898 0.423804 0.478659 0.533687 0.588608 0.643292 0.697879 0.752123 0.793224 0.834057 0.874887 0.915713 0.955753 0.969213 0.982672 0.996131 1.00959 1.02298 1.07684 1.1305 1.18416 1.23776 1.2911 1.34454 1.39794 1.4508 1.50334 1.55589 1.60856 1.66118 1.71343 1.76542 1.81714 1.86434 1.91115 1.95795 2.00475 2.05099 2.05575 2.0605 2.06525 2.07001 2.07473 2.12568 2.17655 2.22742 2.27827 2.32876 2.3793 2.42968 2.47966 2.52923 2.57881 2.62846 2.67811 2.72733 2.77615 2.8248 2.87354 2.92183 2.97012 3.0184 3.06665 3.06894 3.07121 3.07348 3.07575 3.07802 3.1234 3.16878 3.21417 3.25955 3.30456 3.35185 3.39884 3.44557 3.49192 3.53821 3.58456 3.63092 3.67691 3.72228 3.76762 3.81304 3.85812 3.90311 3.9481 3.99286 4.00384 4.01471 4.02559 4.03647 4.04737 4.08078 4.1142 4.14762 4.18103 4.21416 4.25818 4.30173 4.34521 4.38843 4.43151 4.47467 4.51783 4.56057 4.60281 4.64504 4.68737 4.72951 4.77147 4.81344 4.85495 4.87816 4.90118 4.9242 4.94722 4.97043 4.98867 5.00692 5.02516 5.04341 5.06151 5.10253 5.14324 5.18395 5.22456 5.26494 5.30545 5.34596 5.38598 5.42574 5.46549 5.50538 5.54523 5.58486 5.6243 5.66349 5.70232 5.74096 5.77959 5.81823 5.85733 5.85772 5.85811 5.8585 5.85889 5.85928 5.89813 5.93697 5.97582 6.01466 6.05333 6.09214 6.13079 6.16927 6.20764 6.24599 6.28448 6.32296 6.3614 6.39955 6.43769 6.47595 6.51421 6.55247 6.59073 6.6289 6.63887 6.64885 6.65884 6.66882 6.6788 6.70706 6.73533 6.7636 6.79186 6.82016 6.85861 6.89692 6.9352 6.97357 7.01197 7.0505 7.08902 7.12764 7.16624 7.20484 7.24355 7.28242 7.32139 7.36035 7.39929 7.4132 7.42721 7.44123 7.45525 7.46917 7.49448 7.5198 7.54511 7.57043 7.59595 7.63567 7.67542 7.71517 7.75517 7.79532 7.83555 7.87578 7.91633 7.95709 7.99786 8.03869 8.07991 8.12126 8.16261 8.20402 8.2109 8.21787 8.22484 8.23182 8.23875 8.27378 8.3088 8.34382 8.37888 8.41439 8.45698 8.49964 8.54241 8.58579 8.6292 8.67262 8.71611 8.76018 8.80433 8.84865 8.87805 8.90783 8.93767 8.96751 8.99682 9.01201 9.02719 9.04237 9.05759 9.073 9.11853 9.16423 9.20994 9.25602 9.30242 9.34878 9.39514 9.44199 9.48925 9.53653 9.57974 9.6234 9.66717 9.71093 9.75446 9.75856 9.76266 9.76677 9.77088 9.77504 9.82343 9.87187 9.9203 9.96891 10.0179 10.0668 10.1157 10.1649 10.2144 10.2639 10.3132 10.3629 10.4127 10.4625 10.5123 10.516 10.5197 10.5235 10.5272 10.5309 10.577 10.6231 10.6692 10.7152 10.7612 10.8106 10.8601 10.9106 10.9624 11.0141 11.0655 11.1139 11.1576 11.2013 11.2406 11.2584 11.2831 11.3084 11.3337 11.3611 11.3865 11.4119 11.4373 11.463 11.4965 11.5592 11.6139 11.6666 11.6967 11.7255 11.7542 11.786 11.8224 11.8586 11.8958 11.8999 11.9041 11.9082 11.9124 11.9166 11.9519 11.9872 12.0224 12.0575 12.0926 12.1316 12.1706 12.2069 12.2405 12.2739 12.2967 12.3182 12.339 12.3598 12.3837 12.3928 12.4019 12.4111 12.4199 12.4283 12.4563 12.4829 12.5094 12.5342 12.558 12.5803 12.6026 12.6217 12.6391 12.6557 12.6665 12.6749 12.6827 12.6905 12.6997 12.703 12.7062 12.7094 12.7125 12.7149 12.7205 12.7245 12.7284 12.7306 12.73 12.7264 12.7225 12.7148 12.7032 12.6915 12.6764 12.6588 12.6381 12.6171 12.5926 12.5721 12.5478 12.5235 12.4991 12.4685 12.4606 12.4526 12.4446 12.4366 12.4275 12.3829 12.3368 12.2905 12.2439 12.191 12.1335 12.0733 12.0107 11.9428 11.8732 11.7986 11.7239 11.6427 11.5553 11.4677 11.3747 11.2807 11.18 11.0755 10.9691 10.8569 10.7384 10.6174 10.4963 10.3688 10.2326 10.0908 9.94896 9.80704 9.66316 9.57634 9.48634 9.39633 9.30631 9.19543 9.12338 9.0513 8.97921 8.90709 8.83258 8.64547 8.4574 8.26925 8.08104 7.88975 7.6826 7.4586 7.23444 7.01014 6.75965 6.49932 6.25562 6.01399 5.77795 5.55645 5.32727 5.04812 4.72463 4.33768 3.90962 3.46609 3.05502 2.77935 2.65213 2.54907 2.44199 2.33517 1.81981 0.909227 0